# Wall shear stress
# Time        	patch         	min           	max           
3.500000e+02	aerofoil	(-5.143374e+00 -7.412718e+00 -4.223600e-17)	(1.183726e+00 1.035322e+00 5.240170e-17)
