# Wall shear stress
# Time        	patch         	min           	max           
1.000000e+02	aerofoil	(-5.024465e+00 -4.592871e+00 -2.700594e-17)	(4.420553e-01 1.058136e+00 3.289562e-17)
