# Wall shear stress
# Time        	patch         	min           	max           
3.000000e+02	aerofoil	(-4.984922e+00 -7.125673e+00 -4.089726e-17)	(1.108655e+00 8.844352e-01 4.993065e-17)
