/*--------------------------------*- C++ -*----------------------------------*\
  =========                 |
  \\      /  F ield         | OpenFOAM: The Open Source CFD Toolbox
   \\    /   O peration     | Website:  https://openfoam.org
    \\  /    A nd           | Version:  10
     \\/     M anipulation  |
\*---------------------------------------------------------------------------*/
FoamFile
{
    format      ascii;
    class       volScalarField;
    location    "100";
    object      k;
}
// * * * * * * * * * * * * * * * * * * * * * * * * * * * * * * * * * * * * * //

dimensions      [0 2 -2 0 0 0 0];

internalField   nonuniform List<scalar> 
96890
(
0.00407242
0.141272
1.19545
3.66043
5.55615
6.59556
7.0545
7.13678
6.96106
6.59299
6.06882
5.40748
4.61379
3.68259
2.65628
1.63292
0.766223
0.26643
0.10882
0.0848394
0.0823288
0.0825438
0.0875637
0.0088317
0.305529
2.40998
6.04609
8.21795
9.2706
9.64636
9.60156
9.26727
8.71046
7.96815
7.05893
5.98315
4.72508
3.34591
2.03012
0.977412
0.386103
0.161453
0.107033
0.0965936
0.105294
0.172571
0.00888875
0.307263
2.41911
6.05629
8.22604
9.27816
9.65374
9.60986
9.27679
8.7206
7.97706
7.06482
5.98417
4.72108
3.34037
2.02732
0.978714
0.387513
0.161483
0.10686
0.0965682
0.105508
0.173396
0.00339064
0.117064
0.994013
3.17033
4.97198
5.97892
6.46582
6.62237
6.5317
6.24816
5.8084
5.24083
4.55794
3.75801
2.84449
1.86023
0.948372
0.358719
0.127342
0.0859128
0.0811092
0.0810738
0.0848043
6.08267e-05
0.00185463
0.0144598
0.0791367
0.259176
0.530912
0.911283
1.31944
1.72774
2.11058
2.44275
2.75104
2.99402
3.18563
3.32736
3.41604
3.44583
3.40841
3.30202
3.12147
2.88947
2.65518
2.3783
0.00340247
0.117581
1.00138
3.21979
5.07714
6.13864
6.64533
6.78494
6.66936
6.36233
5.90275
5.31479
4.60761
3.77428
2.82236
1.81829
0.910719
0.339344
0.122657
0.0851949
0.0810154
0.0810373
0.0850999
0.0033664
0.11634
0.991114
3.19272
5.0458
6.10668
6.61551
6.75642
6.64381
6.33862
5.88142
5.29755
4.59668
3.7741
2.83582
1.84005
0.931083
0.349917
0.125051
0.0854537
0.0809706
0.0809883
0.0848843
0.00389746
0.134781
1.13845
3.53402
5.41609
6.45873
6.92819
7.02446
6.86364
6.51135
6.00643
5.36952
4.60352
3.69953
2.6907
1.67248
0.800972
0.284712
0.111991
0.084797
0.081937
0.0820903
0.0868965
0.00382231
0.132169
1.11771
3.48748
5.36692
6.41021
6.88517
6.98625
6.83118
6.48497
5.98675
5.35777
4.60185
3.70898
2.70749
1.69082
0.815628
0.292419
0.113414
0.0847678
0.081755
0.0818795
0.0865985
0.00374747
0.129549
1.09657
3.43938
5.31537
6.36164
6.84272
6.95003
6.80179
6.46213
5.97074
5.34962
4.60345
3.72165
2.72823
1.71273
0.831973
0.300722
0.114957
0.0847585
0.0815665
0.0816694
0.0862682
0.00366935
0.126828
1.07495
3.38996
5.26287
6.31226
6.79907
6.91422
6.77354
6.44114
5.95685
5.34345
4.60639
3.73582
2.75096
1.73653
0.849461
0.309544
0.116627
0.0847889
0.0813908
0.0814702
0.0859319
0.00358208
0.123796
1.05102
3.3361
5.20408
6.25934
6.7532
6.87647
6.74345
6.41874
5.94217
5.33689
4.60938
3.75043
2.77517
1.76263
0.868448
0.319003
0.118454
0.084867
0.0812342
0.0812935
0.085636
0.00350136
0.120987
1.02849
3.28457
5.14972
6.20956
6.70926
6.84064
6.71587
6.39923
5.92988
5.33202
4.61323
3.76559
2.8006
1.79064
0.889034
0.328943
0.120456
0.0849994
0.0810991
0.0811365
0.0853225
0.00397572
0.137481
1.15948
3.57864
5.46571
6.50919
6.97544
7.06679
6.90082
6.54314
6.03195
5.38713
4.61193
3.69823
2.68225
1.66095
0.790425
0.278815
0.110922
0.0847714
0.0820113
0.0821996
0.0871024
0.00389289
0.136559
1.1414
3.33016
5.02998
5.94914
6.3445
6.43483
6.31247
6.03101
5.60302
5.03956
4.35779
3.55918
2.65681
1.72095
0.881659
0.342373
0.128134
0.086162
0.0814228
0.0813546
0.0851567
0.00404525
0.139898
1.17843
3.62055
5.51248
6.55525
7.01729
7.1035
6.93233
6.56916
6.05158
5.39881
4.6141
3.69099
2.6695
1.64755
0.77922
0.273011
0.109934
0.0847693
0.0821153
0.0823178
0.0872683
0.00459628
0.159458
1.33971
3.98278
5.91049
6.93953
7.37279
7.42244
7.20883
6.79678
6.22425
5.51137
4.66452
3.6795
2.60672
1.54745
0.688223
0.235676
0.104875
0.0851264
0.0829899
0.0832774
0.0885916
0.00414607
0.143896
1.21533
3.70069
5.60332
6.6419
7.09781
7.1771
6.99794
6.6246
6.09385
5.42478
4.62337
3.68558
2.65529
1.62816
0.759277
0.262509
0.10814
0.0847835
0.0823311
0.0825758
0.0875995
0.00425648
0.147191
1.23526
3.74319
5.64899
6.68719
7.13912
7.21392
7.02995
6.65106
6.11379
5.4379
4.63002
3.68663
2.65237
1.62178
0.751662
0.258552
0.10751
0.0847602
0.0823688
0.0826238
0.0876664
0.00431963
0.149386
1.25238
3.78051
5.6898
6.72689
7.17601
7.24794
7.0596
6.67577
6.13251
5.45092
4.63748
3.68909
2.65076
1.61589
0.744309
0.255028
0.106982
0.0847461
0.0824062
0.0826731
0.0877794
0.00437909
0.151437
1.2684
3.81539
5.7276
6.76259
7.20957
7.27857
7.08615
6.6974
6.14923
5.46268
4.64445
3.69178
2.64937
1.61011
0.737444
0.251996
0.106569
0.0847356
0.0824278
0.0827046
0.0878281
0.00439905
0.152552
1.28218
3.84825
5.76196
6.79655
7.24196
7.30766
7.11125
6.71781
6.16511
5.47404
4.65177
3.69433
2.64729
1.60328
0.729972
0.248932
0.10619
0.0847701
0.0824901
0.0827676
0.0879506
0.00445141
0.154489
1.29678
3.88308
5.79761
6.832
7.27373
7.33552
7.135
6.73762
6.18062
5.48552
4.65877
3.69667
2.64459
1.59618
0.723164
0.246446
0.10592
0.084831
0.0825566
0.0828253
0.0880369
0.0045545
0.157492
1.31407
3.91718
5.83213
6.86395
7.30245
7.36097
7.15712
6.75591
6.19507
5.49624
4.66543
3.69906
2.64253
1.59049
0.718254
0.245108
0.105852
0.0848232
0.0825298
0.0828031
0.088038
0.00459326
0.15883
1.32434
3.93867
5.86076
6.89182
7.32881
7.38354
7.17659
6.7719
6.2076
5.50441
4.66886
3.69674
2.63404
1.57756
0.708288
0.241849
0.105525
0.0849023
0.0826596
0.0829273
0.0881928
0.00459545
0.159132
1.33284
3.95957
5.88604
6.91527
7.35077
7.4031
7.19326
6.78491
6.21674
5.50895
4.66795
3.68954
2.62193
1.56381
0.699128
0.239177
0.105268
0.0849775
0.0827631
0.0830518
0.088334
0.00537191
0.186091
1.54143
4.3955
6.34744
7.35326
7.74217
7.73906
7.46659
6.99442
6.3632
5.59801
4.70763
3.68932
2.6012
1.55188
0.708055
0.251104
0.10913
0.0870993
0.0846531
0.0848894
0.0905003
0.00542917
0.187827
1.55034
4.41067
6.36316
7.36744
7.75401
7.74984
7.47711
7.00485
6.37409
5.60979
4.72004
3.70136
2.61143
1.55896
0.710694
0.251469
0.109241
0.0871767
0.0846782
0.0849504
0.0905584
0.00464712
0.161231
1.35358
4.01506
5.94212
6.96995
7.4016
7.44911
7.233
6.81763
6.24072
5.52304
4.67042
3.67946
2.60216
1.5407
0.683808
0.23496
0.10489
0.0851497
0.082997
0.083318
0.0886442
0.00473577
0.164085
1.37117
4.04307
5.97259
6.99846
7.42752
7.47201
7.25277
6.83399
6.25274
5.52994
4.67194
3.67548
2.59466
1.53256
0.679177
0.23421
0.104934
0.0851998
0.0830431
0.0833692
0.0886914
0.00482396
0.166789
1.38726
4.06886
5.99913
7.0251
7.45201
7.4939
7.27193
6.84965
6.26417
5.5363
4.67269
3.67108
2.58715
1.52479
0.67513
0.233767
0.105026
0.085256
0.0830871
0.0834172
0.0887622
0.00481266
0.166926
1.39518
4.091
6.02145
7.04885
7.47538
7.51551
7.2906
6.86486
6.27486
5.54192
4.67275
3.66586
2.57974
1.51812
0.672186
0.233719
0.105172
0.085314
0.0831342
0.0834675
0.088827
0.00484273
0.168157
1.40558
4.11348
6.04926
7.07477
7.49855
7.53688
7.30892
6.87899
6.28427
5.54615
4.67193
3.66121
2.57355
1.51285
0.670322
0.23403
0.105366
0.0853784
0.0831835
0.0835187
0.0888939
0.00492312
0.17035
1.41739
4.13364
6.07374
7.09972
7.522
7.55756
7.32608
6.89191
6.29255
5.54924
4.67057
3.65653
2.5683
1.50912
0.669625
0.234697
0.105604
0.0854451
0.083233
0.0835718
0.0889777
0.00496415
0.17188
1.42774
4.15773
6.09998
7.12344
7.54382
7.57621
7.34134
6.90341
6.29978
5.55188
4.66883
3.652
2.56378
1.50644
0.669525
0.235583
0.10586
0.0855037
0.0832824
0.0836261
0.0890579
0.00505678
0.174716
1.44289
4.18496
6.12404
7.14583
7.56425
7.59385
7.35539
6.91341
6.30565
5.55392
4.66765
3.64871
2.56075
1.5051
0.670245
0.236706
0.10614
0.0855622
0.0833345
0.0836831
0.0891269
0.00513251
0.177092
1.45576
4.20869
6.14745
7.1669
7.58278
7.60946
7.36801
6.92243
6.31058
5.55511
4.66607
3.64615
2.5586
1.50472
0.671749
0.238003
0.10644
0.0856256
0.0833901
0.0837416
0.0891883
0.00516741
0.178287
1.46485
4.22772
6.16989
7.18693
7.60064
7.62436
7.3794
6.93026
6.31503
5.55679
4.66552
3.64484
2.55811
1.50567
0.673887
0.239486
0.106752
0.0856955
0.0834489
0.0838012
0.0892737
0.00515149
0.177977
1.46884
4.24064
6.18881
7.20608
7.61755
7.63872
7.39054
6.9379
6.3197
5.55905
4.6662
3.64533
2.55934
1.5083
0.676776
0.24112
0.107085
0.0857761
0.0835151
0.0838643
0.0893481
0.00513633
0.177806
1.47525
4.25744
6.20658
7.22515
7.63285
7.65136
7.40033
6.94501
6.32412
5.56136
4.66783
3.64694
2.5615
1.51159
0.680064
0.242823
0.107425
0.0858659
0.0835841
0.0839289
0.0894466
0.0052202
0.180451
1.48921
4.28054
6.22417
7.24121
7.64766
7.6631
7.40932
6.95158
6.32862
5.56447
4.67047
3.64967
2.56487
1.51582
0.683731
0.244561
0.107764
0.0859643
0.0836541
0.0839921
0.0895215
0.00521218
0.18028
1.49127
4.29226
6.24136
7.25635
7.66141
7.67447
7.41835
6.9585
6.33366
5.56835
4.67396
3.65354
2.5691
1.52068
0.68782
0.246271
0.108079
0.0860731
0.0837352
0.0840628
0.0896117
0.0052085
0.180504
1.49841
4.30614
6.25744
7.2716
7.675
7.68626
7.42775
6.9655
6.33906
5.57308
4.67857
3.65857
2.57456
1.52632
0.692091
0.248014
0.108383
0.0861767
0.0838162
0.084133
0.0896882
0.00529112
0.183181
1.51227
4.3272
6.27924
7.29004
7.68874
7.69762
7.43703
6.97272
6.34493
5.5783
4.68391
3.66432
2.58044
1.53259
0.697009
0.249833
0.108694
0.0862662
0.0838814
0.0841874
0.0897712
0.00536185
0.185362
1.52449
4.3473
6.29537
7.30496
7.70128
7.70809
7.44528
6.97906
6.3502
5.58366
4.68989
3.67087
2.58668
1.53858
0.70117
0.251163
0.108909
0.0863696
0.0839783
0.0842722
0.0898566
0.00542434
0.187059
1.53303
4.36332
6.30869
7.31763
7.71274
7.71745
7.45258
6.9849
6.35507
5.58838
4.69562
3.67741
2.59313
1.54478
0.705352
0.252395
0.1091
0.086471
0.0840614
0.0843503
0.089917
0.00541282
0.186902
1.5357
4.37502
6.32115
7.3289
7.72268
7.72547
7.45881
6.98976
6.35931
5.59278
4.70135
3.6847
2.60105
1.55314
0.71135
0.25435
0.109424
0.0865339
0.0840652
0.0843498
0.0899335
0.00543147
0.187543
1.54084
4.38367
6.3334
7.34012
7.73148
7.73222
7.46347
6.99311
6.36221
5.59632
4.70576
3.68925
2.60376
1.55418
0.711237
0.253704
0.109391
0.08671
0.0842451
0.0844966
0.0900816
0.00539595
0.186559
1.53964
4.38513
6.33809
7.34645
7.73796
7.73668
7.46598
6.99429
6.36321
5.59781
4.70743
3.6903
2.60374
1.55463
0.711222
0.253138
0.109377
0.08688
0.0843893
0.084644
0.0902401
0.0061954
0.214865
1.75636
4.82206
6.81688
7.83677
8.22774
8.22256
7.94709
7.46632
6.81645
6.01511
5.06408
3.95694
2.75883
1.60432
0.705689
0.250972
0.112437
0.0894506
0.0865227
0.0870191
0.0941342
0.00622089
0.215507
1.75897
4.8315
6.82968
7.85074
8.24014
8.23449
7.9579
7.47521
6.82244
6.01759
5.063
3.95287
2.75391
1.6009
0.706489
0.252535
0.112812
0.0895149
0.0865445
0.0870565
0.094192
0.00623453
0.215487
1.75712
4.8341
6.83962
7.86031
8.24986
8.24365
7.96523
7.48033
6.82467
6.01652
5.05872
3.94588
2.74671
1.59666
0.70718
0.254008
0.113177
0.0896006
0.086596
0.087108
0.0942499
0.00624515
0.215869
1.76054
4.84184
6.85035
7.86997
8.25875
8.25199
7.97228
7.48526
6.82657
6.01521
5.05462
3.93985
2.7409
1.59407
0.709082
0.25574
0.113555
0.0896853
0.0866489
0.0871611
0.0943428
0.00621626
0.215404
1.76188
4.84902
6.85761
7.87855
8.2682
8.26023
7.97864
7.48912
6.82773
6.01359
5.05034
3.93413
2.73579
1.59288
0.711917
0.257638
0.113934
0.0897708
0.086705
0.0872167
0.0944164
0.00546444
0.189039
1.55867
4.42116
6.37302
7.37672
7.76321
7.75776
7.48469
7.01219
6.38241
5.619
4.72938
3.70995
2.61805
1.56294
0.711575
0.251341
0.109314
0.0872651
0.0847484
0.0850147
0.0906669
0.0054883
0.18973
1.56205
4.43065
6.38395
7.38777
7.77371
7.7669
7.4934
7.02162
6.3929
5.63017
4.74052
3.71991
2.6255
1.56712
0.712278
0.251218
0.109399
0.0873562
0.0848093
0.0850775
0.0907584
0.00549621
0.190121
1.56747
4.44374
6.39616
7.39771
7.78211
7.77566
7.50265
7.03187
6.40389
5.64144
4.75138
3.72908
2.63177
1.57008
0.712404
0.250986
0.1095
0.0874557
0.0848707
0.0851383
0.0908572
0.00551302
0.1907
1.57348
4.45244
6.40485
7.40719
7.79209
7.78603
7.51355
7.04329
6.41551
5.65284
4.76197
3.73798
2.63789
1.5726
0.712287
0.250837
0.109625
0.0875674
0.0849303
0.0851965
0.0909559
0.00549279
0.190256
1.5742
4.4615
6.41464
7.41795
7.80326
7.7973
7.5252
7.05523
6.42769
5.66492
4.77293
3.74668
2.64323
1.57461
0.711996
0.2507
0.109764
0.0876769
0.0849861
0.0852526
0.0910661
0.00551565
0.191048
1.57891
4.47298
6.4265
7.42877
7.81515
7.80927
7.53745
7.06756
6.43996
5.6768
4.78341
3.75448
2.64785
1.57608
0.711742
0.250718
0.109927
0.0877666
0.085039
0.0853064
0.0911571
0.00553741
0.192013
1.58479
4.4818
6.43841
7.44131
7.82709
7.82116
7.54941
7.07982
6.45217
5.68852
4.79317
3.76116
2.6517
1.57736
0.711414
0.250794
0.1101
0.0878451
0.0850874
0.0853573
0.0912604
0.00559878
0.193641
1.59125
4.49021
6.4482
7.45308
7.83895
7.83339
7.56143
7.09208
6.46461
5.69949
4.80173
3.76651
2.65459
1.57813
0.710992
0.250931
0.110294
0.0879195
0.0851297
0.0854056
0.0913437
0.00566376
0.195275
1.59994
4.50379
6.46165
7.46526
7.8501
7.84455
7.5735
7.10473
6.47653
5.70982
4.80923
3.77117
2.65714
1.57871
0.710597
0.251204
0.110507
0.0879951
0.0851678
0.0854516
0.0914398
0.00563188
0.194595
1.5983
4.50869
6.46884
7.4759
7.86219
7.85749
7.58677
7.11767
6.48856
5.7195
4.81587
3.7752
2.65907
1.57924
0.710496
0.251591
0.110738
0.088065
0.0852022
0.0854952
0.0915156
0.00561263
0.19427
1.60272
4.51962
6.48069
7.48753
7.87417
7.87002
7.60031
7.13084
6.50012
5.72871
4.82224
3.77907
2.66167
1.58023
0.710665
0.252184
0.111001
0.0881211
0.0852333
0.0855368
0.0916099
0.00562113
0.194948
1.60849
4.52493
6.49107
7.4994
7.88766
7.88459
7.61407
7.14344
6.51103
5.73696
4.82767
3.78274
2.66456
1.58156
0.711237
0.252957
0.11128
0.0881702
0.0852625
0.085577
0.091679
0.00562907
0.195238
1.61252
4.53609
6.50215
7.5122
7.90111
7.89809
7.62697
7.15524
6.52051
5.74401
4.83284
3.78675
2.66728
1.58276
0.712086
0.253942
0.111583
0.0882174
0.0852895
0.085615
0.0917202
0.0056096
0.195049
1.61861
4.54928
6.51312
7.52396
7.91385
7.91106
7.63943
7.16613
6.52919
5.7503
4.83734
3.7904
2.66986
1.58376
0.713165
0.255106
0.111891
0.0882634
0.0853149
0.0856524
0.0918093
0.0056303
0.195774
1.62418
4.56136
6.52782
7.53929
7.92853
7.92449
7.65153
7.17614
6.53697
5.75584
4.84166
3.79415
2.67278
1.58541
0.714863
0.256443
0.112212
0.0882964
0.0853388
0.0856883
0.0918654
0.00570094
0.197746
1.6317
4.5731
6.54226
7.55362
7.94201
7.93695
7.6628
7.18543
6.54405
5.76138
4.84621
3.79795
2.67547
1.58695
0.71706
0.258061
0.112533
0.0883209
0.0853617
0.0857236
0.0919504
0.00576177
0.199374
1.63651
4.58272
6.55714
7.56878
7.95596
7.9488
7.67285
7.19383
6.55062
5.76635
4.85035
3.80193
2.6785
1.58947
0.720066
0.259781
0.112849
0.0883493
0.0853858
0.0857591
0.0920128
0.00577967
0.199994
1.64143
4.5932
6.56812
7.57946
7.96743
7.96006
7.68298
7.20213
6.55729
5.77202
4.85556
3.8064
2.68154
1.59241
0.723624
0.261641
0.113152
0.088392
0.0854125
0.0857952
0.0920555
0.00581069
0.200923
1.64911
4.60705
6.58114
7.59226
7.97889
7.97085
7.69232
7.21011
6.56368
5.77728
4.86048
3.81101
2.68539
1.59643
0.727703
0.263453
0.113412
0.0884273
0.0854395
0.085831
0.0921166
0.00581674
0.201291
1.65144
4.61462
6.59121
7.60472
7.99118
7.98151
7.70124
7.21742
6.56998
5.78317
4.86573
3.81602
2.68991
1.60107
0.732176
0.265195
0.113615
0.0884455
0.0854665
0.085867
0.092153
0.00579602
0.200918
1.65542
4.62325
6.60007
7.61307
8.0009
7.9914
7.70997
7.22499
6.57642
5.78887
4.87137
3.82164
2.69515
1.60688
0.737086
0.266819
0.113748
0.088455
0.0854942
0.0859034
0.0921771
0.00577019
0.200667
1.65849
4.63158
6.6138
7.62639
8.01235
8.00118
7.71843
7.2322
6.58293
5.79477
4.87746
3.828
2.70131
1.61366
0.742145
0.268231
0.113832
0.0884724
0.0855234
0.0859407
0.0922532
0.00587779
0.203408
1.66874
4.64919
6.62736
7.63921
8.02402
8.01086
7.72663
7.2392
6.58919
5.80093
4.88444
3.83562
2.70897
1.62155
0.747102
0.269248
0.11386
0.0885041
0.0855565
0.0859783
0.0923078
0.00595408
0.205403
1.67877
4.6663
6.6387
7.64963
8.03344
8.01975
7.73468
7.24654
6.59628
5.80883
4.89298
3.84455
2.71779
1.62981
0.75162
0.26994
0.113841
0.0885527
0.085592
0.086016
0.0923302
0.00597194
0.206016
1.68316
4.67511
6.65002
7.66098
8.04352
8.02873
7.74295
7.25426
6.60406
5.81745
4.90254
3.85475
2.72765
1.63844
0.755657
0.270194
0.113765
0.0885937
0.0856278
0.0860544
0.092369
0.00603737
0.207767
1.69025
4.68647
6.66222
7.67093
8.05297
8.0378
7.75112
7.26232
6.61258
5.82711
4.91375
3.86689
2.73861
1.6472
0.759219
0.270107
0.113633
0.0886249
0.0856631
0.0860926
0.0924493
0.00599974
0.206963
1.69002
4.68905
6.67107
7.68104
8.06173
8.04635
7.7596
7.27109
6.62234
5.83806
4.926
3.87969
2.75035
1.65581
0.761699
0.269632
0.113467
0.0886609
0.0857002
0.0861303
0.0924953
0.00596738
0.206492
1.69164
4.69679
6.67979
7.68921
8.07018
8.05434
7.76816
7.28029
6.633
5.85069
4.94006
3.89403
2.76254
1.66367
0.763271
0.268744
0.113267
0.0887049
0.085739
0.0861672
0.092584
0.00593679
0.205684
1.68958
4.70267
6.68742
7.69695
8.07912
8.06346
7.77746
7.29088
6.64523
5.86444
4.95482
3.90846
2.77409
1.6702
0.763595
0.267553
0.113053
0.0887496
0.0857754
0.0862032
0.0926678
0.00591253
0.205325
1.69397
4.70953
6.69637
7.70551
8.08747
8.07223
7.78752
7.30222
6.65816
5.87926
4.97082
3.92355
2.78535
1.67554
0.762847
0.266029
0.112819
0.0887879
0.0858083
0.0862379
0.092739
0.00597353
0.206936
1.70007
4.71757
6.70642
7.71707
8.09768
8.08233
7.79793
7.31418
6.67239
5.89522
4.98706
3.93789
2.79504
1.67891
0.760893
0.264325
0.112585
0.0888223
0.085839
0.0862716
0.0928479
0.00603682
0.208603
1.7088
4.73183
6.71381
7.72565
8.10628
8.0922
7.80976
7.32786
6.68768
5.91157
5.003
3.95157
2.8037
1.68085
0.758093
0.262489
0.112372
0.0888546
0.0858675
0.0863034
0.0929508
0.00605503
0.209712
1.71708
4.73993
6.72457
7.73531
8.11721
8.10343
7.82194
7.34177
6.70346
5.92856
5.01932
3.96443
2.81062
1.68098
0.75433
0.26065
0.11218
0.0888841
0.0858965
0.0863356
0.0930559
0.00612445
0.211609
1.72357
4.74973
6.73676
7.746
8.12804
8.11512
7.83474
7.35658
6.71995
5.94535
5.0346
3.97531
2.81537
1.67945
0.750091
0.258825
0.112014
0.0889057
0.0859236
0.0863665
0.0931413
0.00619147
0.213268
1.72966
4.76081
6.74707
7.75574
8.13806
8.12652
7.84816
7.37203
6.73672
5.96192
5.0486
3.98423
2.81848
1.67655
0.745453
0.257195
0.111889
0.0889168
0.0859439
0.0863933
0.0932151
0.00620954
0.213891
1.73247
4.76762
6.75513
7.76487
8.14849
8.13826
7.86164
7.38735
6.75321
5.97752
5.06075
3.99063
2.81905
1.67184
0.74047
0.255688
0.111798
0.0889283
0.0859693
0.0864269
0.0933048
0.00621673
0.214147
1.73491
4.77691
6.76472
7.77394
8.15861
8.15006
7.8758
7.40318
6.76919
5.99166
5.07075
3.99527
2.81838
1.6665
0.735635
0.254444
0.11175
0.0889361
0.0859937
0.0864593
0.0933709
0.00617898
0.213343
1.73735
4.78124
6.76998
7.78237
8.1688
8.16262
7.8906
7.4186
6.78376
6.00359
5.07843
3.99719
2.81533
1.66027
0.731328
0.253701
0.111792
0.0889381
0.086001
0.0864759
0.0934392
0.00614118
0.212689
1.73945
4.78481
6.77639
7.79275
8.18097
8.17635
7.905
7.43294
6.7967
6.01331
5.08363
3.99754
2.81145
1.65336
0.726848
0.252905
0.111835
0.0889715
0.086043
0.0865259
0.0935124
0.00615762
0.213012
1.74066
4.78917
6.78626
7.80272
8.19252
8.18916
7.91888
7.44639
6.80785
6.02093
5.08667
3.99528
2.8056
1.64634
0.723493
0.252726
0.111953
0.0890055
0.0860851
0.0865701
0.0935824
0.00616625
0.213073
1.74235
4.79685
6.79532
7.81354
8.20468
8.20199
7.93106
7.45686
6.81559
6.02529
5.087
3.99234
2.80087
1.64172
0.722629
0.253759
0.112279
0.0890016
0.086043
0.0865373
0.0936086
0.00618715
0.21382
1.74538
4.80513
6.80616
7.82346
8.21486
8.21219
7.93992
7.46405
6.81992
6.02589
5.08345
3.98447
2.78971
1.63015
0.716864
0.252797
0.112351
0.0891252
0.0861649
0.0866637
0.0937561
0.00618754
0.214083
1.74898
4.81333
6.81348
7.83173
8.22323
8.2194
7.9454
7.4664
6.81912
6.02169
5.07525
3.97225
2.77574
1.61856
0.712254
0.252355
0.112482
0.0892517
0.0862849
0.0867904
0.0938949
0.00752859
0.260012
2.08343
5.4583
7.57049
8.63036
9.0398
9.04255
8.76547
8.27408
7.60336
6.7708
5.77662
4.60587
3.30613
2.04053
0.987507
0.369457
0.141754
0.0974031
0.0917646
0.0942232
0.11794
0.00751098
0.259845
2.0875
5.47183
7.58379
8.64436
9.05407
9.05863
8.78312
8.29229
7.62135
6.78801
5.79241
4.61906
3.31506
2.04495
0.988734
0.369665
0.141681
0.097381
0.0917821
0.0942889
0.118461
0.00753096
0.260938
2.0952
5.48298
7.59615
8.65723
9.0682
9.07277
8.79751
8.30694
7.63578
6.80138
5.80392
4.62741
3.31948
2.04621
0.988773
0.369362
0.141538
0.0973753
0.0918199
0.0943813
0.118991
0.00760804
0.262783
2.10087
5.49225
7.6095
8.67088
9.08274
9.08752
8.81284
8.32232
7.65085
6.81541
5.81549
4.63545
3.32376
2.04804
0.989554
0.36949
0.141456
0.0973788
0.0918619
0.0944713
0.119413
0.00758964
0.262502
2.10316
5.50152
7.62128
8.68313
9.09587
9.10179
8.82777
8.3373
7.66504
6.82774
5.82508
4.64183
3.32686
2.04939
0.990524
0.369623
0.141356
0.0973855
0.0919081
0.0945564
0.119852
0.007606
0.263068
2.10891
5.5098
7.63261
8.69652
9.11014
9.11692
8.84277
8.352
7.67836
6.83898
5.83365
4.64706
3.32908
2.05074
0.991601
0.369704
0.141246
0.097396
0.0919577
0.0946421
0.120247
0.0076778
0.265176
2.11832
5.52535
7.64597
8.70887
9.12384
9.13146
8.85763
8.36637
7.6913
6.84964
5.84128
4.65142
3.33177
2.05313
0.993353
0.369907
0.141136
0.0974165
0.0920112
0.0947308
0.120613
0.00773709
0.266663
2.12329
5.53601
7.66003
8.72387
9.13942
9.1469
8.87275
8.38037
7.70345
6.85927
5.84814
4.65562
3.33468
2.0562
0.995718
0.370187
0.141025
0.0974521
0.0920701
0.09482
0.120949
0.00775529
0.267495
2.13146
5.54547
7.671
8.73708
9.1541
9.16211
8.88762
8.39385
7.71497
6.86846
5.85479
4.66042
3.33912
2.06087
0.998435
0.370374
0.140903
0.097496
0.0921338
0.0949106
0.121233
0.0077129
0.266911
2.1349
5.55372
7.68177
8.75126
9.16891
9.17688
8.90148
8.40598
7.72516
6.87648
5.86075
4.66569
3.34459
2.06627
1.00126
0.370449
0.140766
0.0975495
0.0922027
0.0949995
0.121515
0.00623588
0.215848
1.76488
4.85831
6.86686
7.88836
8.27759
8.26807
7.98492
7.49278
6.82846
6.0118
5.04668
3.92914
2.73197
1.59311
0.715405
0.259605
0.114305
0.0898559
0.0867637
0.0872739
0.0945146
0.006292
0.217742
1.77667
4.8718
6.87705
7.89761
8.28623
8.27531
7.99029
7.4957
6.82907
6.00995
5.04259
3.92453
2.72942
1.59515
0.71984
0.261637
0.11466
0.0899449
0.0868255
0.0873329
0.0946039
0.00630846
0.218811
1.78605
4.87922
6.88798
7.90644
8.29391
8.28186
7.99452
7.4976
6.82861
6.00789
5.03936
3.92085
2.72807
1.59865
0.724673
0.263601
0.115009
0.0900431
0.0868903
0.0873932
0.0947209
0.00633317
0.219417
1.78821
4.88633
6.89768
7.91638
8.302
8.28764
7.99803
7.49911
6.82822
6.00582
5.03644
3.91889
2.72894
1.60369
0.729873
0.265444
0.115332
0.0901625
0.0869565
0.0874542
0.0947982
0.00634012
0.21964
1.79095
4.89387
6.9045
7.92403
8.30925
8.29311
8.00153
7.50057
6.82785
6.00445
5.03478
3.91814
2.7312
1.61002
0.735168
0.267088
0.115625
0.0902855
0.0870219
0.0875162
0.0948851
0.00636279
0.220189
1.79349
4.90089
6.91242
7.93152
8.3147
8.29726
8.00439
7.5021
6.82825
6.00374
5.03396
3.91916
2.73549
1.61721
0.740297
0.268453
0.115885
0.0903801
0.0870858
0.087579
0.0949984
0.00638101
0.220554
1.79521
4.9108
6.9217
7.93882
8.32103
8.30187
8.00728
7.50333
6.8285
6.00372
5.03478
3.92222
2.74154
1.62513
0.745019
0.269621
0.116102
0.0904555
0.0871486
0.0876422
0.0951002
0.00638687
0.221235
1.80257
4.91517
6.93079
7.94642
8.32659
8.30564
8.00983
7.50475
6.82912
6.00441
5.03696
3.92705
2.74896
1.63342
0.749391
0.270555
0.116287
0.0905284
0.0872111
0.087706
0.0952352
0.00640853
0.221986
1.80877
4.92016
6.93828
7.95312
8.33156
8.30972
8.01253
7.50656
6.83047
6.00672
5.04132
3.93418
2.75789
1.64192
0.753292
0.271321
0.116437
0.0906017
0.0872741
0.0877709
0.0953752
0.00647312
0.223723
1.81477
4.9286
6.94513
7.95935
8.33689
8.31375
8.01535
7.50856
6.83288
6.01047
5.04721
3.94256
2.76738
1.64996
0.75653
0.271872
0.116569
0.0906759
0.087337
0.0878359
0.095507
0.00653334
0.225387
1.82068
4.93752
6.95193
7.96485
8.3409
8.31641
8.01728
7.51069
6.83648
6.01587
5.05509
3.95247
2.77708
1.65707
0.758977
0.272251
0.116697
0.0907501
0.0874004
0.0879016
0.0956391
0.00649199
0.224185
1.8184
4.93867
6.9526
7.96673
8.34378
8.31908
8.02018
7.51445
6.84165
6.02277
5.06381
3.96277
2.78648
1.66333
0.760873
0.272591
0.116845
0.0908304
0.0874646
0.0879683
0.0957738
0.00645709
0.223612
1.8209
4.94543
6.9575
7.97171
8.34729
8.32209
8.02335
7.51886
6.84726
6.03027
5.07303
3.97277
2.79524
1.66861
0.762299
0.27282
0.117014
0.090925
0.0875317
0.0880357
0.0959355
0.00647002
0.223805
1.81957
4.94817
6.95956
7.97546
8.35122
8.32653
8.0284
7.52498
6.85443
6.03852
5.08244
3.98263
2.80321
1.67283
0.76319
0.273091
0.117214
0.0910457
0.0876023
0.088104
0.0960566
0.00648052
0.223901
1.8208
4.95494
6.96762
7.98043
8.35549
8.33091
8.03383
7.5313
6.86202
6.04706
5.09177
3.99174
2.80987
1.67605
0.76387
0.273329
0.117422
0.0911751
0.0876721
0.0881731
0.0961746
0.00648076
0.224391
1.82817
4.95908
6.97176
7.98412
8.36016
8.33656
8.04047
7.53869
6.86984
6.05517
5.10044
4.00023
2.81625
1.67879
0.764289
0.273673
0.117652
0.0912831
0.0877407
0.0882429
0.0963226
0.00650437
0.225217
1.83169
4.96507
6.97586
7.98843
8.36578
8.34282
8.04708
7.54612
6.87783
6.06372
5.10884
4.00789
2.82169
1.68115
0.764827
0.274084
0.117901
0.091381
0.0878089
0.0883133
0.0964477
0.00650324
0.225162
1.83094
4.96884
6.98238
7.99492
8.37169
8.34918
8.05438
7.55384
6.88592
6.07203
5.11744
4.01587
2.82682
1.68301
0.765356
0.274645
0.118162
0.0914816
0.0878773
0.0883844
0.0965918
0.0064644
0.224303
1.83194
4.97051
6.98439
7.99927
8.37819
8.35646
8.0619
7.56154
6.89406
6.08055
5.12562
4.02264
2.83103
1.68461
0.766046
0.275259
0.118437
0.0915871
0.087946
0.0884567
0.0967566
0.00647438
0.224561
1.8336
4.97448
6.99103
8.00624
8.38511
8.36388
8.06957
7.56948
6.9024
6.08904
5.13376
4.02905
2.83472
1.68607
0.767023
0.276111
0.118745
0.0916965
0.0880144
0.0885294
0.0969178
0.00653584
0.22581
1.83466
4.98109
7.00014
8.01461
8.39218
8.37148
8.07737
7.57759
6.91049
6.09726
5.14125
4.03479
2.83822
1.68748
0.767934
0.276934
0.11906
0.091809
0.0880829
0.0886029
0.0970847
0.0065463
0.226178
1.83629
4.98768
7.00759
8.02178
8.39924
8.37925
8.08567
7.58655
6.91996
6.10612
5.14853
4.03999
2.84109
1.68886
0.769314
0.277927
0.119408
0.0919287
0.0881519
0.088677
0.0972628
0.00654388
0.226356
1.8393
4.99095
7.01315
8.02898
8.40765
8.38819
8.09514
7.59606
6.92918
6.11439
5.15512
4.04454
2.84367
1.6903
0.770766
0.278957
0.119773
0.092057
0.088221
0.0887522
0.0974085
0.00656343
0.226795
1.84222
4.99683
7.02136
8.0367
8.41629
8.39723
8.10473
7.60568
6.93806
6.12201
5.16139
4.0489
2.84637
1.6921
0.772639
0.280092
0.120151
0.0921939
0.0882894
0.088828
0.0975654
0.00656237
0.226777
1.84271
4.99775
7.02539
8.0452
8.42631
8.40778
8.11506
7.61562
6.94694
6.12945
5.16702
4.05263
2.84871
1.69423
0.774749
0.281304
0.120544
0.0923305
0.0883576
0.0889052
0.0977515
0.00653008
0.226133
1.84454
5.00264
7.0301
8.05301
8.43582
8.41777
8.12535
7.62547
6.9558
6.1368
5.17266
4.05671
2.85207
1.69728
0.777188
0.282565
0.120944
0.0924542
0.088424
0.0889837
0.0979215
0.00654408
0.226799
1.84775
5.01143
7.0421
8.06409
8.44724
8.42923
8.13594
7.63465
6.9634
6.14308
5.17769
4.06073
2.85553
1.70059
0.779841
0.283898
0.121342
0.0925717
0.0884897
0.0890636
0.0980809
0.00660638
0.228585
1.85491
5.02049
7.0527
8.0744
8.45756
8.43899
8.14551
7.64348
6.97098
6.14913
5.18298
4.06553
2.85948
1.7042
0.782543
0.285164
0.121741
0.0926854
0.088556
0.0891445
0.0982629
0.00660905
0.228926
1.85979
5.02661
7.06019
8.08354
8.4682
8.44916
8.1545
7.65112
6.97766
6.15548
5.18913
4.07118
2.86428
1.70817
0.785291
0.286465
0.122135
0.0927955
0.0886207
0.0892266
0.0984782
0.00662857
0.229625
1.86548
5.03815
7.07016
8.09337
8.4766
8.45771
8.16256
7.6586
6.98484
6.16234
5.19561
4.07728
2.86967
1.71267
0.788187
0.287817
0.122548
0.09291
0.0886871
0.0893126
0.0986725
0.00663957
0.229764
1.86693
5.04222
7.07674
8.10263
8.48605
8.46671
8.17091
7.66632
6.99246
6.16996
5.20278
4.08406
2.87546
1.71722
0.790963
0.289124
0.122976
0.0930318
0.0887561
0.089399
0.0988851
0.0066654
0.230658
1.87197
5.05092
7.08802
8.11251
8.49528
8.47502
8.17868
7.67424
7.00047
6.17819
5.21112
4.09164
2.88161
1.72184
0.793777
0.290482
0.123423
0.0931642
0.0888269
0.0894881
0.0990769
0.00671752
0.23213
1.87688
5.05838
7.09661
8.12102
8.50415
8.48372
8.18738
7.68306
7.00958
6.18738
5.21991
4.09935
2.88786
1.72655
0.796656
0.291933
0.123891
0.0933043
0.0888997
0.08958
0.0992722
0.00668425
0.23145
1.87799
5.06589
7.10424
8.12655
8.51142
8.49207
8.19685
7.69307
7.01973
6.19758
5.22962
4.10758
2.89404
1.73116
0.799713
0.293487
0.124377
0.0934373
0.0889746
0.0896746
0.0994952
0.00660739
0.229727
1.87675
5.07039
7.1118
8.1358
8.52119
8.50213
8.20738
7.70396
7.03054
6.20778
5.23884
4.11553
2.90023
1.7357
0.802584
0.295084
0.124889
0.0935646
0.0890526
0.0897721
0.09971
0.00666326
0.23144
1.88485
5.08096
7.12147
8.14686
8.53188
8.51294
8.21841
7.71502
7.04156
6.21821
5.24808
4.12339
2.90649
1.74042
0.805698
0.296795
0.125421
0.0936989
0.089134
0.0898724
0.0999335
0.00673467
0.2333
1.89128
5.0883
7.12985
8.15726
8.54187
8.52364
8.22918
7.72574
7.05176
6.22778
5.2569
4.13108
2.9125
1.74477
0.808871
0.29864
0.125978
0.0938457
0.0892189
0.0899763
0.100171
0.00674018
0.233242
1.89122
5.09117
7.13798
8.16691
8.55149
8.53354
8.23921
7.73579
7.06173
6.23721
5.26523
4.13803
2.91791
1.74912
0.812258
0.300617
0.12656
0.0940096
0.0893066
0.0900834
0.100425
0.00676605
0.23413
1.89642
5.10348
7.14634
8.17427
8.56025
8.54247
8.24876
7.74554
7.07135
6.24603
5.27329
4.1451
2.92354
1.75358
0.815864
0.302684
0.127161
0.0941759
0.0893969
0.0901937
0.100717
0.00676917
0.234234
1.89703
5.10834
7.15506
8.18327
8.56932
8.55152
8.25795
7.75478
7.08022
6.25433
5.28061
4.15136
2.92849
1.75773
0.819579
0.304816
0.127766
0.0943308
0.0894881
0.0903061
0.101009
0.0067849
0.23477
1.90398
5.11441
7.16211
8.19058
8.57658
8.5596
8.26615
7.76295
7.08819
6.26207
5.28754
4.1572
2.93355
1.76246
0.823745
0.307134
0.128372
0.0944848
0.0895807
0.0904212
0.101301
0.00679791
0.235216
1.90731
5.12119
7.17013
8.19895
8.58481
8.56789
8.27453
7.77125
7.09597
6.2691
5.29402
4.16307
2.93846
1.76739
0.828291
0.309533
0.128985
0.0946424
0.0896739
0.0905382
0.101602
0.00677445
0.23484
1.9097
5.12693
7.17719
8.20682
8.59246
8.57594
8.28243
7.77906
7.10361
6.27627