/*--------------------------------*- C++ -*----------------------------------*\
  =========                 |
  \\      /  F ield         | OpenFOAM: The Open Source CFD Toolbox
   \\    /   O peration     | Website:  https://openfoam.org
    \\  /    A nd           | Version:  10
     \\/     M anipulation  |
\*---------------------------------------------------------------------------*/
FoamFile
{
    format      ascii;
    class       volScalarField;
    location    "100";
    object      nut;
}
// * * * * * * * * * * * * * * * * * * * * * * * * * * * * * * * * * * * * * //

dimensions      [0 2 -1 0 0 0 0];

internalField   nonuniform List<scalar> 
96890
(
3.25587e-10
7.14281e-08
1.79868e-06
1.04859e-05
2.47411e-05
4.35937e-05
6.62292e-05
9.15709e-05
0.000118453
0.000145462
0.000170547
0.000190584
0.00020144
0.00019901
0.000182714
0.000152935
0.000113155
8.45064e-05
5.31834e-05
4.39354e-05
4.29184e-05
4.30184e-05
4.44843e-05
7.07939e-10
1.51737e-07
3.33372e-06
1.52977e-05
3.27866e-05
5.53415e-05
8.17831e-05
0.000110694
0.000140796
0.0001706
0.000197847
0.000218834
0.000228292
0.000221217
0.000199274
0.00017105
0.000132822
0.00010376
6.68614e-05
4.82873e-05
4.44494e-05
4.81735e-05
6.94427e-05
7.13853e-10
1.52761e-07
3.3468e-06
1.53226e-05
3.28327e-05
5.54362e-05
8.19441e-05
0.000110945
0.000141116
0.000170925
0.000198073
0.000218883
0.00022813
0.000220919
0.000199113
0.000171225
0.000132846
0.000103617
6.67537e-05
4.81376e-05
4.44875e-05
4.82598e-05
6.94846e-05
2.72625e-10
5.95193e-08
1.53473e-06
9.54775e-06
2.38777e-05
4.3226e-05
6.67276e-05
9.22204e-05
0.000118825
0.000145915
0.000171975
0.000194491
0.000209176
0.000211975
0.000196349
0.000165898
0.000118116
8.17434e-05
5.8393e-05
4.58431e-05
4.40655e-05
4.42601e-05
4.53549e-05
4.87393e-12
8.42142e-10
2.31317e-08
3.16425e-07
1.71402e-06
4.64901e-06
9.60808e-06
1.60853e-05
2.42317e-05
3.36021e-05
4.3527e-05
5.46282e-05
6.60042e-05
7.75958e-05
8.94013e-05
0.000101221
0.000112416
0.000122186
0.000129988
0.00013532
0.000138692
0.000141157
0.000141847
2.73435e-10
5.97878e-08
1.54087e-06
9.54909e-06
2.35523e-05
4.20453e-05
6.42895e-05
8.92061e-05
0.000115768
0.000142842
0.0001688
0.000190828
0.00020479
0.000206003
0.000191963
0.000162264
0.000115454
8.09311e-05
5.71327e-05
4.52766e-05
4.37171e-05
4.39712e-05
4.52128e-05
2.7054e-10
5.91915e-08
1.53035e-06
9.53507e-06
2.36218e-05
4.21375e-05
6.43077e-05
8.91161e-05
0.000115647
0.000142723
0.000168808
0.000191353
0.000206369
0.000209218
0.000196938
0.000163902
0.000116212
8.03422e-05
5.73525e-05
4.56236e-05
4.39727e-05
4.42689e-05
4.53975e-05
3.13349e-10
6.83347e-08
1.72366e-06
1.02184e-05
2.43611e-05
4.30387e-05
6.54717e-05
9.05826e-05
0.000117315
0.000144411
0.000169908
0.000190528
0.000201871
0.00019985
0.000183892
0.000154683
0.000114292
8.52089e-05
5.43802e-05
4.41216e-05
4.30732e-05
4.31619e-05
4.45732e-05
3.0731e-10
6.70419e-08
1.6961e-06
1.01196e-05
2.42399e-05
4.28632e-05
6.52252e-05
9.02899e-05
0.000116976
0.000144042
0.000169585
0.000190469
0.000202221
0.000200509
0.00018467
0.000155342
0.000113883
8.412e-05
5.48512e-05
4.41636e-05
4.3159e-05
4.32609e-05
4.4704e-05
3.01446e-10
6.57642e-08
1.66823e-06
1.0017e-05
2.41095e-05
4.26981e-05
6.50289e-05
9.00428e-05
0.000116661
0.000143739
0.000169387
0.000190514
0.00020264
0.000201369
0.000185815
0.00015617
0.000113318
8.26451e-05
5.52946e-05
4.43408e-05
4.32646e-05
4.34131e-05
4.48424e-05
2.95165e-10
6.44172e-08
1.63971e-06
9.91206e-06
2.39835e-05
4.25431e-05
6.48309e-05
8.98042e-05
0.000116393
0.000143461
0.000169179
0.000190533
0.000203071
0.000202344
0.000187082
0.00015721
0.000112959
8.12396e-05
5.56827e-05
4.45818e-05
4.33892e-05
4.35908e-05
4.49757e-05
2.88005e-10
6.28838e-08
1.60743e-06
9.79663e-06
2.38329e-05
4.2357e-05
6.46161e-05
8.95661e-05
0.00011616
0.000143223
0.000169013
0.000190601
0.000203581
0.000203453
0.000188546
0.000158568
0.000113069
8.02543e-05
5.60282e-05
4.48509e-05
4.35265e-05
4.37331e-05
4.51259e-05
2.81519e-10
6.14936e-08
1.57766e-06
9.69182e-06
2.3727e-05
4.22595e-05
6.45342e-05
8.94682e-05
0.000116038
0.000143078
0.000168932
0.000190766
0.000204238
0.000204832
0.000190425
0.000159971
0.000113001
7.86704e-05
5.62221e-05
4.51606e-05
4.37576e-05
4.40879e-05
4.52909e-05
3.19795e-10
6.96939e-08
1.75204e-06
1.03129e-05
2.44977e-05
4.32575e-05
6.57689e-05
9.09687e-05
0.000117796
0.000144913
0.000170269
0.000190717
0.000201935
0.000199791
0.00018376
0.000153781
0.000112823
8.36212e-05
5.39844e-05
4.42633e-05
4.31429e-05
4.32356e-05
4.46386e-05
3.06443e-10
6.93109e-08
1.75555e-06
1.01617e-05
2.53071e-05
4.56283e-05
7.04275e-05
9.74969e-05
0.000124655
0.000151594
0.000177084
0.000198737
0.00021313
0.000215533
0.000199078
0.000161144
0.000115543
8.3026e-05
5.96302e-05
4.61623e-05
4.44476e-05
4.46038e-05
4.57156e-05
3.25544e-10
7.09254e-08
1.7778e-06
1.04049e-05
2.46218e-05
4.34294e-05
6.60184e-05
9.12799e-05
0.000118126
0.000145202
0.000170464
0.000190686
0.000201646
0.000199341
0.000183239
0.000153058
0.000112139
8.30389e-05
5.3607e-05
4.41986e-05
4.31268e-05
4.32569e-05
4.46434e-05
3.65414e-10
7.99642e-08
1.98282e-06
1.11838e-05
2.5824e-05
4.51298e-05
6.82063e-05
9.38641e-05
0.000120868
0.000147842
0.000172787
0.000192614
0.000202833
0.000198828
0.00017995
0.000145662
0.000106064
8.07173e-05
5.13624e-05
4.35499e-05
4.2677e-05
4.28804e-05
4.43619e-05
3.31555e-10
7.27322e-08
1.82554e-06
1.05729e-05
2.49001e-05
4.38537e-05
6.65792e-05
9.19761e-05
0.000118876
0.000145856
0.00017086
0.000190868
0.000201742
0.000199377
0.000183065
0.000152412
0.000111816
8.33079e-05
5.29175e-05
4.38754e-05
4.29593e-05
4.3077e-05
4.44774e-05
3.42699e-10
7.45618e-08
1.85395e-06
1.06751e-05
2.50522e-05
4.40806e-05
6.68821e-05
9.23107e-05
0.000119192
0.000146135
0.000171097
0.00019107
0.000201971
0.000199616
0.000183154
0.000151883
0.000110926
8.25592e-05
5.25983e-05
4.39336e-05
4.29564e-05
4.30672e-05
4.44632e-05
3.4778e-10
7.566e-08
1.87682e-06
1.0759e-05
2.51807e-05
4.42623e-05
6.71024e-05
9.25639e-05
0.00011946
0.000146348
0.0001713
0.000191325
0.000202241
0.000199817
0.000183182
0.000151239
0.000109864
8.18064e-05
5.21455e-05
4.39248e-05
4.29704e-05
4.3057e-05
4.44697e-05
3.52563e-10
7.66731e-08
1.89799e-06
1.08353e-05
2.52965e-05
4.44206e-05
6.73051e-05
9.28144e-05
0.000119716
0.000146626
0.000171609
0.000191628
0.000202528
0.000200044
0.000183212
0.000150608
0.000108963
8.1322e-05
5.16941e-05
4.32589e-05
4.26823e-05
4.30339e-05
4.44595e-05
3.51886e-10
7.70288e-08
1.91281e-06
1.09042e-05
2.54125e-05
4.45778e-05
6.7518e-05
9.30504e-05
0.000119975
0.000146928
0.000171929
0.00019198
0.000202833
0.000200224
0.000183151
0.00014995
0.000108082
8.08594e-05
5.14912e-05
4.2562e-05
4.23576e-05
4.30315e-05
4.4482e-05
3.55983e-10
7.79919e-08
1.93236e-06
1.09924e-05
2.55362e-05
4.47362e-05
6.77098e-05
9.32672e-05
0.000120227
0.000147186
0.000172198
0.000192224
0.00020302
0.000200256
0.000182879
0.000149251
0.000107253
8.03954e-05
5.15899e-05
4.36125e-05
4.28094e-05
4.30521e-05
4.44947e-05
3.66669e-10
7.9684e-08
1.9574e-06
1.10748e-05
2.56497e-05
4.48815e-05
6.7874e-05
9.34361e-05
0.000120401
0.0001474
0.000172442
0.000192442
0.000203139
0.000200192
0.000182598
0.000148563
0.000106586
8.01052e-05
5.19041e-05
4.40181e-05
4.2966e-05
4.30366e-05
4.44616e-05
3.69784e-10
8.03447e-08
1.97018e-06
1.11074e-05
2.56959e-05
4.49515e-05
6.79742e-05
9.35938e-05
0.000120593
0.000147588
0.000172597
0.00019258
0.000203192
0.000199946
0.000181909
0.000147189
0.000105287
7.92612e-05
5.18915e-05
4.40175e-05
4.30264e-05
4.30823e-05
4.45065e-05
3.67603e-10
8.01455e-08
1.97864e-06
1.11411e-05
2.57598e-05
4.50546e-05
6.80995e-05
9.37254e-05
0.000120729
0.000147732
0.000172733
0.000192641
0.000203052
0.000199427
0.000180995
0.000146053
0.000104732
7.90813e-05
5.16696e-05
4.38878e-05
4.29614e-05
4.30994e-05
4.45234e-05
4.28109e-10
9.31603e-08
2.24676e-06
1.20906e-05
2.71721e-05
4.69451e-05
7.04021e-05
9.63224e-05
0.000123493
0.000150497
0.000175308
0.000194609
0.00020383
0.000198774
0.000180197
0.000149087
0.000112157
8.58551e-05
5.26847e-05
4.39975e-05
4.28713e-05
4.29528e-05
4.44879e-05
4.34832e-10
9.43223e-08
2.26201e-06
1.2132e-05
2.7216e-05
4.69991e-05
7.04594e-05
9.64088e-05
0.000123626
0.000150664
0.000175495
0.000194839
0.000204084
0.000199082
0.000180583
0.000149298
0.000111641
8.53846e-05
5.27495e-05
4.40369e-05
4.2932e-05
4.30347e-05
4.45262e-05
3.69464e-10
8.08474e-08
2.00166e-06
1.12692e-05
2.59477e-05
4.5283e-05
6.83911e-05
9.40733e-05
0.000121114
0.000148128
0.0001731
0.000192865
0.000202927
0.00019872
0.000179688
0.000144958
0.000105392
8.05819e-05
5.12605e-05
4.3294e-05
4.26863e-05
4.29467e-05
4.43765e-05
3.7892e-10
8.26047e-08
2.02993e-06
1.13395e-05
2.60511e-05
4.54311e-05
6.85602e-05
9.42727e-05
0.000121332
0.000148339
0.000173278
0.000192979
0.000202896
0.000198466
0.000179295
0.000144399
0.000105222
8.0696e-05
5.1264e-05
4.33015e-05
4.27136e-05
4.29477e-05
4.43659e-05
3.88521e-10
8.43026e-08
2.05587e-06
1.14016e-05
2.6125e-05
4.55487e-05
6.87498e-05
9.44989e-05
0.00012157
0.000148585
0.000173506
0.000193133
0.000202913
0.000198329
0.000179026
0.000143778
0.000104942
8.07893e-05
5.12902e-05
4.34168e-05
4.26605e-05
4.29485e-05
4.43607e-05
3.84604e-10
8.40772e-08
2.0619e-06
1.14452e-05
2.61982e-05
4.56472e-05
6.88918e-05
9.46941e-05
0.000121803
0.000148818
0.000173686
0.000193212
0.000202877
0.000198154
0.000178831
0.000143311
0.000104873
8.1003e-05
5.13386e-05
4.32346e-05
4.26441e-05
4.29531e-05
4.4356e-05
3.86329e-10
8.45935e-08
2.07474e-06
1.14901e-05
2.62847e-05
4.57967e-05
6.90726e-05
9.48817e-05
0.000122001
0.000148996
0.000173834
0.000193295
0.00020284
0.000198035
0.000178683
0.000143039
0.000104975
8.13068e-05
5.14567e-05
4.34091e-05
4.27461e-05
4.29609e-05
4.43558e-05
3.94799e-10
8.58147e-08
2.09169e-06
1.15308e-05
2.63558e-05
4.5907e-05
6.91955e-05
9.50238e-05
0.000122149
0.000149138
0.000173942
0.000193347
0.000202829
0.000197971
0.000178618
0.000142936
0.000105206
8.16507e-05
5.1647e-05
4.37223e-05
4.2795e-05
4.2968e-05
4.4365e-05
3.97983e-10
8.65612e-08
2.10323e-06
1.15819e-05
2.64451e-05
4.60121e-05
6.9336e-05
9.51974e-05
0.000122312
0.000149268
0.000174018
0.000193378
0.000202839
0.00019798
0.000178679
0.000142944
0.000105492
8.20051e-05
5.18376e-05
4.3775e-05
4.28148e-05
4.29742e-05
4.43678e-05
4.08046e-10
8.83335e-08
2.12592e-06
1.16551e-05
2.65369e-05
4.61126e-05
6.94464e-05
9.53122e-05
0.000122452
0.000149423
0.000174162
0.000193492
0.000202932
0.000198073
0.000178812
0.00014306
0.000105822
8.2379e-05
5.19645e-05
4.37368e-05
4.28224e-05
4.29801e-05
4.43716e-05
4.16198e-10
8.98069e-08
2.14493e-06
1.17157e-05
2.66251e-05
4.622e-05
6.95787e-05
9.54624e-05
0.000122581
0.000149524
0.000174262
0.000193604
0.000203058
0.000198242
0.000178976
0.000143248
0.000106191
8.27589e-05
5.20317e-05
4.36796e-05
4.28008e-05
4.29849e-05
4.43724e-05
4.1902e-10
9.0397e-08
2.15656e-06
1.17557e-05
2.66975e-05
4.63216e-05
6.97017e-05
9.5609e-05
0.000122742
0.000149684
0.000174394
0.00019374
0.000203232
0.000198418
0.000179167
0.000143531
0.000106605
8.31305e-05
5.20697e-05
4.36316e-05
4.27624e-05
4.29891e-05
4.43864e-05
4.15168e-10
8.98715e-08
2.15878e-06
1.17716e-05
2.6738e-05
4.63963e-05
6.97754e-05
9.56839e-05
0.000122832
0.000149796
0.000174539
0.000193888
0.000203375
0.000198592
0.000179385
0.000143919
0.000107059
8.34802e-05
5.21051e-05
4.35491e-05
4.27717e-05
4.29945e-05
4.43942e-05
4.11301e-10
8.94024e-08
2.1662e-06
1.1805e-05
2.67715e-05
4.64691e-05
6.98788e-05
9.57733e-05
0.000122944
0.000149911
0.000174655
0.00019404
0.000203579
0.00019879
0.000179606
0.000144349
0.00010748
8.37967e-05
5.21629e-05
4.33343e-05
4.27779e-05
4.30004e-05
4.44159e-05
4.20596e-10
9.10685e-08
2.18703e-06
1.18672e-05
2.68448e-05
4.65303e-05
6.9966e-05
9.59087e-05
0.000123079
0.000150068
0.000174851
0.000194243
0.000203771
0.000199004
0.000179873
0.000144819
0.000107849
8.40886e-05
5.22658e-05
4.32709e-05
4.27423e-05
4.30053e-05
4.44278e-05
4.1799e-10
9.07051e-08
2.18528e-06
1.18761e-05
2.68653e-05
4.6582e-05
7.0067e-05
9.60501e-05
0.000123236
0.000150215
0.000174981
0.000194399
0.000203929
0.000199169
0.000180115
0.000145301
0.000108201
8.43163e-05
5.24017e-05
4.35427e-05
4.26809e-05
4.30162e-05
4.4452e-05
4.15511e-10
9.04942e-08
2.19269e-06
1.1901e-05
2.69302e-05
4.66794e-05
7.01565e-05
9.61386e-05
0.000123346
0.000150357
0.000175149
0.000194559
0.000204082
0.000199317
0.000180377
0.000145817
0.000108593
8.45169e-05
5.25519e-05
4.37561e-05
4.28024e-05
4.30317e-05
4.44701e-05
4.24785e-10
9.23235e-08
2.21455e-06
1.19581e-05
2.70225e-05
4.67932e-05
7.02613e-05
9.62217e-05
0.000123433
0.000150431
0.000175207
0.000194633
0.000204162
0.000199426
0.000180595
0.000146361
0.000109052
8.47057e-05
5.26722e-05
4.38721e-05
4.2886e-05
4.30408e-05
4.44901e-05
4.32596e-10
9.37015e-08
2.23467e-06
1.20176e-05
2.70843e-05
4.68606e-05
7.03334e-05
9.62909e-05
0.000123496
0.000150502
0.00017531
0.000194719
0.000204213
0.000199487
0.00018078
0.000146843
0.000109326
8.46899e-05
5.26781e-05
4.38757e-05
4.29185e-05
4.30647e-05
4.45164e-05
4.39794e-10
9.47218e-08
2.24872e-06
1.20617e-05
2.71208e-05
4.68908e-05
7.0378e-05
9.63368e-05
0.000123549
0.000150574
0.00017538
0.000194794
0.000204275
0.000199531
0.00018091
0.000147333
0.000109571
8.46764e-05
5.26575e-05
4.35972e-05
4.28577e-05
4.30846e-05
4.45337e-05
4.36691e-10
9.43393e-08
2.2482e-06
1.20824e-05
2.71638e-05
4.69362e-05
7.04165e-05
9.63877e-05
0.0001236
0.000150606
0.000175422
0.000194833
0.000204273
0.000199566
0.000181154
0.00014801
0.000110076
8.4881e-05
5.27643e-05
4.33274e-05
4.27959e-05
4.30652e-05
4.45268e-05
4.38188e-10
9.46437e-08
2.25432e-06
1.20889e-05
2.71702e-05
4.69642e-05
7.04523e-05
9.63999e-05
0.000123597
0.000150614
0.000175429
0.000194831
0.000204261
0.00019948
0.000181036
0.000148021
0.000109757
8.42641e-05
5.27728e-05
4.38042e-05
4.29409e-05
4.31221e-05
4.45917e-05
4.32725e-10
9.3783e-08
2.24951e-06
1.20756e-05
2.71417e-05
4.69315e-05
7.0419e-05
9.63675e-05
0.000123528
0.000150536
0.000175372
0.00019477
0.000204077
0.00019916
0.00018069
0.000148192
0.000109983
8.40825e-05
5.28236e-05
4.41109e-05
4.30134e-05
4.31721e-05
4.46374e-05
4.96413e-10
1.0786e-07
2.52994e-06
1.30335e-05
2.86387e-05
4.91137e-05
7.34504e-05
0.000100295
0.000128345
0.000156078
0.000181256
0.000200389
0.000208716
0.000201862
0.000180576
0.000147109
0.00010865
8.45983e-05
5.27288e-05
4.37547e-05
4.27025e-05
4.29353e-05
4.4908e-05
4.98457e-10
1.0803e-07
2.53038e-06
1.3046e-05
2.86671e-05
4.91765e-05
7.35334e-05
0.000100384
0.000128448
0.00015618
0.000181332
0.000200422
0.000208673
0.000201731
0.000180441
0.000146746
0.000108598
8.49323e-05
5.29511e-05
4.38716e-05
4.27723e-05
4.30163e-05
4.49486e-05
4.99552e-10
1.07712e-07
2.52388e-06
1.30347e-05
2.8677e-05
4.92034e-05
7.35347e-05
0.000100403
0.000128487
0.000156203
0.000181322
0.000200338
0.000208484
0.000201434
0.000180161
0.000146671
0.000109209
8.5551e-05
5.31746e-05
4.39807e-05
4.27979e-05
4.30373e-05
4.49625e-05
5.00406e-10
1.07896e-07
2.52773e-06
1.30468e-05
2.87049e-05
4.92485e-05
7.35985e-05
0.000100473
0.000128542
0.000156225
0.000181307
0.000200299
0.000208357
0.00020119
0.000179969
0.000146709
0.000109809
8.61481e-05
5.33906e-05
4.40722e-05
4.28223e-05
4.30597e-05
4.49899e-05
4.95621e-10
1.07464e-07
2.52578e-06
1.30566e-05
2.87281e-05
4.92715e-05
7.36401e-05
0.000100538
0.000128608
0.000156279
0.000181325
0.000200208
0.000208165
0.000200974
0.000179864
0.000146905
0.000110532
8.67346e-05
5.35542e-05
4.41298e-05
4.2844e-05
4.30833e-05
4.50091e-05
4.3809e-10
9.498e-08
2.27382e-06
1.21499e-05
2.72374e-05
4.70351e-05
7.05238e-05
9.64789e-05
0.000123694
0.000150777
0.000175625
0.000194956
0.000204196
0.000199235
0.000180763
0.000149552
0.000111635
8.52322e-05
5.26486e-05
4.40186e-05
4.29524e-05
4.30433e-05
4.45616e-05
4.40119e-10
9.5334e-08
2.27579e-06
1.21642e-05
2.72605e-05
4.70526e-05
7.05628e-05
9.65626e-05
0.00012382
0.000150914
0.000175777
0.00019512
0.000204399
0.000199493
0.000181011
0.000149688
0.000111428
8.50682e-05
5.25032e-05
4.38461e-05
4.28442e-05
4.30525e-05
4.45914e-05
4.40221e-10
9.5446e-08
2.28365e-06
1.21996e-05
2.73043e-05
4.71215e-05
7.06491e-05
9.6664e-05
0.000123942
0.000151058
0.000175935
0.000195283
0.000204568
0.000199679
0.000181181
0.000149722
0.000111207
8.49266e-05
5.24452e-05
4.33437e-05
4.28292e-05
4.30616e-05
4.46222e-05
4.41574e-10
9.57243e-08
2.29346e-06
1.22199e-05
2.73281e-05
4.716e-05
7.07042e-05
9.67416e-05
0.000124039
0.000151168
0.000176063
0.000195436
0.000204762
0.000199906
0.00018135
0.000149695
0.000110966
8.47956e-05
5.24893e-05
4.35556e-05
4.28666e-05
4.307e-05
4.46519e-05
4.37779e-10
9.51974e-08
2.29031e-06
1.22342e-05
2.7351e-05
4.71873e-05
7.07534e-05
9.68151e-05
0.000124135
0.000151291
0.000176202
0.000195587
0.000204913
0.000200055
0.000181472
0.000149627
0.000110741
8.46835e-05
5.25803e-05
4.40041e-05
4.28221e-05
4.30783e-05
4.46813e-05
4.39609e-10
9.55802e-08
2.29425e-06
1.22565e-05
2.73962e-05
4.72284e-05
7.07925e-05
9.68664e-05
0.000124204
0.000151407
0.000176335
0.000195713
0.000205073
0.000200227
0.000181568
0.000149534
0.000110546
8.46165e-05
5.26761e-05
4.40659e-05
4.28519e-05
4.30886e-05
4.47054e-05
4.41347e-10
9.61957e-08
2.30051e-06
1.22647e-05
2.74111e-05
4.72592e-05
7.08543e-05
9.69623e-05
0.00012432
0.000151504
0.000176476
0.000195904
0.000205228
0.000200364
0.000181705
0.000149444
0.000110387
8.46186e-05
5.27447e-05
4.40285e-05
4.29404e-05
4.30997e-05
4.47322e-05
4.4886e-10
9.72037e-08
2.31263e-06
1.22883e-05
2.74314e-05
4.72956e-05
7.08904e-05
9.70054e-05
0.000124427
0.000151697
0.000176644
0.000196014
0.00020536
0.000200517
0.00018183
0.000149359
0.000110272
8.46954e-05
5.28169e-05
4.38324e-05
4.29488e-05
4.31088e-05
4.47545e-05
4.56438e-10
9.82016e-08
2.3272e-06
1.23226e-05
2.74753e-05
4.73663e-05
7.09992e-05
9.71629e-05
0.000124586
0.000151806
0.000176783
0.000196187
0.0002055
0.000200678
0.000181991
0.000149301
0.000110198
8.48212e-05
5.29253e-05
4.38537e-05
4.29516e-05
4.31163e-05
4.47776e-05
4.515e-10
9.75463e-08
2.3205e-06
1.23246e-05
2.74817e-05
4.73898e-05
7.10523e-05
9.72195e-05
0.000124688
0.000151989
0.00017693
0.000196262
0.000205648
0.000200892
0.000182147
0.000149252
0.000110167
8.49776e-05
5.30587e-05
4.41399e-05
4.29593e-05
4.31224e-05
4.47917e-05
4.47846e-10
9.71946e-08
2.32465e-06
1.23453e-05
2.7523e-05
4.74589e-05
7.11595e-05
9.73708e-05
0.000124828
0.000152067
0.000177013
0.000196437
0.000205858
0.000201127
0.00018235
0.000149234
0.000110177
8.51758e-05
5.31804e-05
4.42083e-05
4.29601e-05
4.31272e-05
4.48081e-05
4.4805e-10
9.76197e-08
2.33247e-06
1.23491e-05
2.75471e-05
4.7503e-05
7.12056e-05
9.74317e-05
0.000124923
0.000152188
0.000177125
0.000196524
0.000206029
0.000201386
0.000182539
0.000149267
0.000110267
8.54361e-05
5.32844e-05
4.40159e-05
4.29572e-05
4.31306e-05
4.48149e-05
4.48686e-10
9.77632e-08
2.33937e-06
1.23795e-05
2.7568e-05
4.75265e-05
7.12598e-05
9.75203e-05
0.00012502
0.000152267
0.000177216
0.000196698
0.000206299
0.000201667
0.000182673
0.000149323
0.000110432
8.57725e-05
5.3434e-05
4.3919e-05
4.29646e-05
4.31332e-05
4.48134e-05
4.44914e-10
9.74768e-08
2.34813e-06
1.24184e-05
2.7621e-05
4.75943e-05
7.1348e-05
9.7617e-05
0.000125111
0.000152362
0.000177351
0.000196902
0.000206576
0.000201932
0.000182774
0.00014934
0.000110589
8.61127e-05
5.36298e-05
4.42313e-05
4.29791e-05
4.31355e-05
4.48264e-05
4.46561e-10
9.78305e-08
2.35543e-06
1.24449e-05
2.76643e-05
4.76556e-05
7.1424e-05
9.76992e-05
0.000125208
0.000152484
0.000177488
0.000197115
0.000206889
0.000202222
0.00018287
0.000149309
0.000110764
8.64561e-05
5.37508e-05
4.43463e-05
4.29902e-05
4.31371e-05
4.48275e-05
4.54431e-10
9.89872e-08
2.36484e-06
1.24671e-05
2.77203e-05
4.77508e-05
7.15263e-05
9.77777e-05
0.000125268
0.000152573
0.000177678
0.000197396
0.000207174
0.0002024
0.000182865
0.000149305
0.000111079
8.69081e-05
5.37044e-05
4.41609e-05
4.29494e-05
4.31384e-05
4.48396e-05
4.61572e-10
9.99861e-08
2.37023e-06
1.24787e-05
2.77477e-05
4.77992e-05
7.16055e-05
9.78908e-05
0.000125406
0.00015273
0.000177842
0.000197631
0.000207476
0.000202612
0.000182896
0.000149512
0.000111658
8.75149e-05
5.36897e-05
4.35916e-05
4.28987e-05
4.3142e-05
4.48481e-05
4.63327e-10
1.00322e-07
2.37878e-06
1.25113e-05
2.77932e-05
4.78475e-05
7.16495e-05
9.79477e-05
0.000125477
0.000152857
0.000178081
0.000197924
0.000207713
0.000202699
0.000182841
0.000149857
0.00011234
8.81117e-05
5.3908e-05
4.39506e-05
4.2932e-05
4.31479e-05
4.48542e-05
4.65936e-10
1.00777e-07
2.38927e-06
1.25464e-05
2.78512e-05
4.79319e-05
7.17418e-05
9.80326e-05
0.000125585
0.000152987
0.000178241
0.000198146
0.000207942
0.000202773
0.000182813
0.000150197
0.00011293
8.85139e-05
5.42791e-05
4.43629e-05
4.29781e-05
4.31543e-05
4.48633e-05
4.66294e-10
1.0096e-07
2.39174e-06
1.25566e-05
2.7845e-05
4.79225e-05
7.17785e-05
9.81206e-05
0.000125705
0.000153161
0.000178474
0.000198386
0.000208101
0.000202825
0.000182839
0.000150498
0.000113453
8.87442e-05
5.44704e-05
4.43931e-05
4.2998e-05
4.31583e-05
4.48621e-05
4.62451e-10
1.00575e-07
2.39527e-06
1.25718e-05
2.78817e-05
4.79696e-05
7.18189e-05
9.81806e-05
0.00012581
0.000153305
0.000178684
0.000198631
0.000208296
0.000202913
0.000182948
0.000150957
0.000114085
8.89814e-05
5.43336e-05
4.43222e-05
4.30022e-05
4.31574e-05
4.48539e-05
4.57688e-10
1.00233e-07
2.39553e-06
1.25783e-05
2.79214e-05
4.80457e-05
7.19177e-05
9.83037e-05
0.000125956
0.000153498
0.000178903
0.000198845
0.000208434
0.00020298
0.000183102
0.000151637
0.000114794
8.92431e-05
5.40887e-05
4.39283e-05
4.29194e-05
4.31546e-05
4.48615e-05
4.71188e-10
1.0198e-07
2.41602e-06
1.26437e-05
2.79797e-05
4.80999e-05
7.2008e-05
9.84293e-05
0.000126108
0.000153684
0.000179119
0.000199058
0.00020861
0.000203132
0.000183355
0.000152404
0.00011538
8.93506e-05
5.39908e-05
4.35558e-05
4.29097e-05
4.315e-05
4.4862e-05
4.80074e-10
1.03198e-07
2.43314e-06
1.26985e-05
2.80414e-05
4.81806e-05
7.21009e-05
9.85279e-05
0.00012625
0.00015387
0.00017933
0.000199265
0.000208793
0.000203301
0.000183653
0.000153094
0.000115737
8.92077e-05
5.39878e-05
4.40678e-05
4.29486e-05
4.3143e-05
4.48552e-05
4.81502e-10
1.0349e-07
2.4389e-06
1.27183e-05
2.80751e-05
4.82339e-05
7.219e-05
9.86499e-05
0.000126388
0.000154036
0.000179529
0.000199468
0.000208972
0.000203537
0.00018403
0.00015373
0.000115938
8.88785e-05
5.39303e-05
4.42362e-05
4.29695e-05
4.31324e-05
4.48608e-05
4.89176e-10
1.04555e-07
2.44971e-06
1.27479e-05
2.81318e-05
4.83066e-05
7.22566e-05
9.87388e-05
0.000126522
0.000154216
0.000179759
0.000199696
0.000209211
0.000203819
0.000184371
0.000154335
0.000116029
8.84667e-05
5.37709e-05
4.40866e-05
4.28766e-05
4.312e-05
4.48827e-05
4.83462e-10
1.03935e-07
2.44539e-06
1.27349e-05
2.81413e-05
4.83528e-05
7.23073e-05
9.88007e-05
0.000126646
0.000154383
0.000179917
0.000199872
0.00020943
0.000204119
0.00018474
0.000154874
0.000115925
8.79907e-05
5.35825e-05
4.38865e-05
4.27796e-05
4.31085e-05
4.48949e-05
4.78092e-10
1.03478e-07
2.44332e-06
1.27454e-05
2.81718e-05
4.83848e-05
7.23778e-05
9.89224e-05
0.000126769
0.00015455
0.000180159
0.000200159
0.000209735
0.000204463
0.000185092
0.000155254
0.000115625
8.74141e-05
5.34113e-05
4.38507e-05
4.28334e-05
4.30982e-05
4.49153e-05
4.73286e-10
1.02735e-07
2.43597e-06
1.27497e-05
2.81825e-05
4.83953e-05
7.24131e-05
9.89994e-05
0.00012693
0.000154769
0.000180385
0.000200375
0.000210003
0.000204803
0.000185389
0.000155451
0.000115138
8.67514e-05
5.32443e-05
4.39461e-05
4.28544e-05
4.30873e-05
4.49277e-05
4.6901e-10
1.02343e-07
2.44015e-06
1.27577e-05
2.82166e-05
4.84686e-05
7.2512e-05
9.9136e-05
0.000127068
0.000154929
0.000180599
0.000200653
0.000210316
0.00020512
0.0001856
0.000155483
0.000114513
8.60524e-05
5.30658e-05
4.39156e-05
4.28406e-05
4.30758e-05
4.49294e-05
4.76224e-10
1.03336e-07
2.45159e-06
1.27813e-05
2.82412e-05
4.85232e-05
7.26057e-05
9.92618e-05
0.000127281
0.000155194
0.000180872
0.000200919
0.000210569
0.000205337
0.000185691
0.000155315
0.000113754
8.53513e-05
5.2893e-05
4.37861e-05
4.2796e-05
4.30647e-05
4.49422e-05
4.83672e-10
1.0434e-07
2.46646e-06
1.2828e-05
2.82825e-05
4.859e-05
7.27209e-05
9.93931e-05
0.00012742
0.000155364
0.000181076
0.000201127
0.000210792
0.000205531
0.000185728
0.000154975
0.000112905
8.46759e-05
5.27467e-05
4.37351e-05
4.27359e-05
4.30551e-05
4.49535e-05
4.85134e-10
1.05193e-07
2.47908e-06
1.2846e-05
2.83334e-05
4.86654e-05
7.28226e-05
9.95525e-05
0.000127614
0.000155583
0.000181315
0.000201351
0.00021094
0.000205597
0.000185633
0.000154471
0.000111975
8.4048e-05
5.2633e-05
4.37821e-05
4.27321e-05
4.30497e-05
4.4966e-05
4.9335e-10
1.06351e-07
2.48972e-06
1.28747e-05
2.83914e-05
4.87407e-05
7.29074e-05
9.96778e-05
0.000127786
0.000155786
0.000181507
0.000201482
0.00021101
0.00020556
0.000185432
0.000153833
0.000111041
8.34935e-05
5.25586e-05
4.3838e-05
4.27795e-05
4.30469e-05
4.49732e-05
5.01551e-10
1.07398e-07
2.4991e-06
1.2902e-05
2.84267e-05
4.8797e-05
7.29935e-05
9.97864e-05
0.000127922
0.000155933
0.000181634
0.000201576
0.000211023
0.000205465
0.000185197
0.00015311
0.000110158
8.30532e-05
5.2522e-05
4.38792e-05
4.27942e-05
4.30437e-05
4.49765e-05
5.03003e-10
1.07711e-07
2.50107e-06
1.29164e-05
2.84612e-05
4.88416e-05
7.3062e-05
9.9905e-05
0.000128076
0.0001561
0.00018178
0.000201624
0.000210931
0.000205267
0.000184891
0.000152302
0.000109326
8.27019e-05
5.2506e-05
4.38991e-05
4.27947e-05
4.30452e-05
4.49868e-05
5.03571e-10
1.07832e-07
2.50365e-06
1.29395e-05
2.84958e-05
4.88849e-05
7.31358e-05
0.000100016
0.000128218
0.00015625
0.00018185
0.0002016
0.000210821
0.000205084
0.000184597
0.00015149
0.000108584
8.24633e-05
5.25019e-05
4.38908e-05
4.27917e-05
4.30476e-05
4.49936e-05
4.97856e-10
1.07202e-07
2.50695e-06
1.29473e-05
2.85037e-05
4.89311e-05
7.32361e-05
0.000100126
0.000128332
0.000156325
0.000181875
0.000201549
0.000210649
0.000204783
0.000184238
0.000150695
0.000107983
8.23782e-05
5.25268e-05
4.38562e-05
4.27786e-05
4.30437e-05
4.50001e-05
4.92055e-10
1.06654e-07
2.50773e-06
1.29451e-05
2.85108e-05
4.89643e-05
7.32899e-05
0.000100205
0.00012842
0.000156401
0.00018191
0.000201482
0.000210487
0.000204562
0.000183904
0.000149903
0.000107429
8.22824e-05
5.25454e-05
4.38214e-05
4.27833e-05
4.3058e-05
4.50129e-05
4.93375e-10
1.06662e-07
2.50859e-06
1.29499e-05
2.85355e-05
4.90274e-05
7.3371e-05
0.000100293
0.000128485
0.00015642
0.000181836
0.000201352
0.000210268
0.00020419
0.000183443
0.000149187
0.000107086
8.23337e-05
5.25962e-05
4.37967e-05
4.27957e-05
4.30709e-05
4.50185e-05
4.9407e-10
1.0653e-07
2.50962e-06
1.29661e-05
2.85657e-05
4.9062e-05
7.34165e-05
0.000100333
0.000128498
0.000156388
0.000181806
0.000201246
0.00021001
0.00020384
0.000183106
0.000148746
0.000107137
8.27238e-05
5.27431e-05
4.37897e-05
4.27752e-05
4.30471e-05
4.49986e-05
4.95746e-10
1.06917e-07
2.51183e-06
1.29846e-05
2.86148e-05
4.91193e-05
7.34417e-05
0.000100362
0.000128522
0.000156347
0.000181642
0.000200971
0.000209661
0.000203317
0.000182394
0.000147786
0.000106584
8.24752e-05
5.27697e-05
4.38636e-05
4.2839e-05
4.31037e-05
4.50439e-05
4.95781e-10
1.07173e-07
2.51682e-06
1.30037e-05
2.86209e-05
4.91109e-05
7.34452e-05
0.000100323
0.000128404
0.000156203
0.000181468
0.000200735
0.000209226
0.000202606
0.000181526
0.000147086
0.000106682
8.26732e-05
5.28208e-05
4.38973e-05
4.28911e-05
4.31594e-05
4.5071e-05
6.05879e-10
1.29802e-07
2.94237e-06
1.42647e-05
3.09789e-05
5.27504e-05
7.84292e-05
0.000106647
0.000136033
0.000165033
0.000191517
0.000212145
0.000222262
0.000217229
0.00019789
0.000171312
0.000133808
0.000101584
6.15582e-05
4.55412e-05
4.35405e-05
4.45924e-05
5.20966e-05
6.02308e-10
1.29579e-07
2.94481e-06
1.42914e-05
3.10383e-05
5.2842e-05
7.85497e-05
0.000106778
0.000136195
0.00016528
0.000191832
0.000212501
0.000222646
0.000217557
0.000198084
0.000171411
0.000133097
0.00010083
6.14652e-05
4.55737e-05
4.35854e-05
4.46325e-05
5.22929e-05
6.0375e-10
1.30222e-07
2.95541e-06
1.43188e-05
3.10909e-05
5.2911e-05
7.86443e-05
0.000106903
0.000136343
0.000165423
0.000191996
0.000212726
0.000222868
0.000217693
0.000198089
0.000171382
0.000133078
0.000100798
6.13817e-05
4.56397e-05
4.35883e-05
4.4656e-05
5.24617e-05
6.13128e-10
1.31402e-07
2.96435e-06
1.43352e-05
3.11251e-05
5.29584e-05
7.87089e-05
0.000107009
0.000136482
0.000165628
0.000192246
0.000212981
0.000223097
0.000217825
0.000198146
0.000171482
0.000133003
0.000100695
6.13153e-05
4.5663e-05
4.35908e-05
4.468e-05
5.26171e-05
6.09354e-10
1.30945e-07
2.96322e-06
1.43447e-05
3.11574e-05
5.30259e-05
7.88166e-05
0.000107147
0.000136652
0.000165819
0.000192455
0.000213195
0.000223273
0.000217934
0.000198192
0.000171567
0.000133038
0.000100648
6.12326e-05
4.56246e-05
4.35909e-05
4.47034e-05
5.27729e-05
6.10681e-10
1.31216e-07
2.97254e-06
1.43613e-05
3.11808e-05
5.30768e-05
7.88948e-05
0.000107272
0.000136822
0.000166004
0.00019267
0.000213414
0.000223435
0.000217982
0.000198225
0.000171708
0.000133133
0.00010062
6.11439e-05
4.55432e-05
4.35919e-05
4.4727e-05
5.29035e-05
6.18582e-10
1.32422e-07
2.98589e-06
1.44058e-05
3.1263e-05
5.31809e-05
7.90215e-05
0.000107425
0.000136986
0.000166192
0.000192866
0.000213582
0.000223543
0.000218067
0.000198377
0.000171953
0.000133317
0.000100609
6.10697e-05
4.5479e-05
4.35978e-05
4.47504e-05
5.3003e-05
6.25646e-10
1.33334e-07
2.99271e-06
1.44263e-05
3.1306e-05
5.32545e-05
7.91347e-05
0.000107568
0.000137144
0.000166362
0.000193031
0.000213727
0.000223669
0.000218195
0.000198578
0.000172296
0.000133569
0.000100593
6.10148e-05
4.55087e-05
4.36092e-05
4.47723e-05
5.30702e-05
6.27098e-10
1.33854e-07
3.00577e-06
1.44506e-05
3.13464e-05
5.33156e-05
7.92154e-05
0.000107669
0.000137263
0.000166476
0.000193154
0.00021387
0.000223793
0.000218359
0.000198904
0.00017272
0.000133852
0.000100537
6.0962e-05
4.55892e-05
4.36229e-05
4.47932e-05
5.31157e-05
6.20564e-10
1.3345e-07
3.00874e-06
1.44602e-05
3.13607e-05
5.33553e-05
7.92911e-05
0.000107745
0.000137344
0.000166595
0.000193293
0.000213985
0.000223945
0.000218631
0.000199312
0.00017314
0.000134106
0.000100426
6.08883e-05
4.56363e-05
4.36353e-05
4.48125e-05
5.31672e-05
4.97188e-10
1.07528e-07
2.52894e-06
1.30795e-05
2.87504e-05
4.93047e-05
7.36944e-05