/*--------------------------------*- C++ -*----------------------------------*\
  =========                 |
  \\      /  F ield         | OpenFOAM: The Open Source CFD Toolbox
   \\    /   O peration     | Website:  https://openfoam.org
    \\  /    A nd           | Version:  10
     \\/     M anipulation  |
\*---------------------------------------------------------------------------*/
FoamFile
{
    format      ascii;
    class       volScalarField;
    location    "100";
    object      omega;
}
// * * * * * * * * * * * * * * * * * * * * * * * * * * * * * * * * * * * * * //

dimensions      [0 0 -1 0 0 0 0];

internalField   nonuniform List<scalar> 
96890
(
1.25079e+07
1.97781e+06
664626
349082
216860
145678
103141
75904.4
57514
44510.6
34989.3
27803.6
22199.5
17633
14040
10677.2
6771.44
3152.78
2046.12
1931
1918.26
1918.8
1968.42
1.24752e+07
2.01354e+06
722910
389480
241449
161808
114599
84555.8
64210.9
49794.4
39201.2
31188.2
24932
19810.1
15732
11767.3
7358.81
3721.11
2414.74
2216.58
2173.11
2185.72
2485.08
1.24518e+07
2.01139e+06
722812
389444
241364
161671
114471
84455.4
64157.7
49773.1
39203
31202.3
24949.4
19823.3
15738.3
11767.7
7367.26
3739.86
2419.09
2219.89
2170.68
2186.26
2495.46
1.2437e+07
1.96683e+06
647679
332050
203356
135735
96354.1
71613.7
54829.4
42756.7
33774.7
26946.4
21650.7
17443.6
14063.6
11213.1
8029.14
4388.36
2180.77
1874.06
1840.65
1831.76
1869.79
1.248e+07
2.20228e+06
625109
250096
151209
114199
94845.5
82027.6
71300.7
62810.8
56120.4
50359.4
45361.1
41054.2
37218.3
33748.2
30652.5
27895.1
25402.5
23067.4
20833.7
18810.1
16766.6
1.24434e+07
1.96664e+06
649880
337183
209366
141098
100350
74178.1
56385.3
43704.8
34372.2
27339.4
21920.7
17608.8
14153.7
11205.8
7888.13
4193
2146.88
1881.66
1853.17
1842.96
1882.21
1.24433e+07
1.96549e+06
647641
334840
207579
139982
99677.9
73757.3
56111.8
43518.2
34237
27236.6
21838.2
17553.4
14113
11226.6
8011.91
4355.33
2180.4
1873.02
1841.38
1829.46
1869.8
1.24381e+07
1.97237e+06
660486
345850
214900
144548
102474
75480
57189
44228.3
34753.4
27637.6
22119.7
17639.8
14087.5
10812.2
7008.11
3341.34
2059.42
1921.89
1902.27
1901.91
1949.52
1.24379e+07
1.97144e+06
658990
344628
214048
144035
102124
75239.8
57020.1
44103.3
34653.3
27558.2
22070.7
17630.2
14097.3
10884.5
7161.98
3476.21
2067.66
1919.4
1894.27
1892.69
1937.15
1.24316e+07
1.96989e+06
657326
343356
213247
143536
101793
75027.9
56875.5
43994.2
34565.4
27489.1
22026.4
17621.1
14109.5
10967.1
7341.93
3638.72
2078.99
1911.52
1885.29
1881.22
1923.81
1.24315e+07
1.96886e+06
655576
342004
212389
143007
101495
74841.6
56752.4
43907.8
34498.5
27436.2
21990.2
17616.4
14123.5
11045.9
7520.06
3810.27
2094.49
1901.87
1875.83
1868.98
1910.63
1.24375e+07
1.96865e+06
653849
340535
211556
142486
101187
74651
56633.3
43833.5
34446.7
27395.9
21963
17615.6
14137.5
11115.9
7680.72
3974.91
2114.18
1892.2
1866.32
1858.86
1897.71
1.24374e+07
1.96748e+06
651907
338902
210472
141766
100737
74386.5
56487.3
43747.2
34388.7
27354.9
21937.5
17618.3
14154.5
11193.5
7867.51
4181.28
2142.5
1882.16
1853.37
1840.33
1883.88
1.24321e+07
1.97264e+06
661786
347005
215603
144903
102656
75576.8
57244.8
44272.5
34792.2
27666.5
22133.1
17633.6
14074.3
10800.7
7005.88
3334.26
2054.69
1915.16
1900.92
1901.2
1951.28
1.27035e+07
1.97023e+06
650168
327716
195355
127665
89351.3
66000.4
50639.5
39783.9
31640.4
25357.9
20446.6
16513.4
13345.6
10679.5
7630.57
4123.69
2148.81
1866.5
1831.88
1823.94
1862.75
1.24261e+07
1.97246e+06
662861
347966
216201
145235
102830
75681.6
57321.6
44339.5
34854.4
27713.4
22153.3
17626.6
14055.5
10764.2
6948.67
3287.74
2050.73
1917.92
1904.04
1903
1954.79
1.25783e+07
1.99411e+06
675660
356120
220841
148116
104738
77039.1
58314
45060.2
35336.6
27985.2
22268.2
17656.3
14084.2
10623.6
6488.73
2919.77
2041.87
1954.69
1944.61
1942.08
1997.02
1.25049e+07
1.97844e+06
665741
350017
217282
145884
103278
76021.8
57607
44584.2
35038.7
27824.2
22195.2
17614.9
14028
10682.6
6790.41
3151.07
2043.56
1932.37
1916.49
1916.93
1969.53
1.24204e+07
1.97408e+06
666285
350648
217693
146101
103414
76145.2
57708.2
44660.1
35087.2
27845.3
22194.6
17603.7
14020.2
10677.8
6776.23
3131.71
2043.98
1929.28
1917.5
1918.48
1971.66
1.24206e+07
1.97444e+06
667285
351382
218128
146372
103617
76283.2
57815.2
44731.3
35124.7
27859.8
22193.9
17597.3
14020
10684.3
6774.82
3117.46
2051.61
1929.34
1917.74
1920.08
1973.92
1.24207e+07
1.9751e+06
668287
352126
218547
146650
103807
76403.9
57892.3
44776.7
35149.3
27867.5
22192.3
17594.6
14023.9
10690.7
6767.84
3098.74
2061.53
1958.8
1931.2
1921.85
1975.46
1.25014e+07
1.98045e+06
670311
352916
218932
146904
103955
76508.8
57955.8
44812.6
35164.7
27872.2
22193.4
17593.9
14027.8
10692.1
6753.86
3078.58
2062.29
1991.68
1947.47
1923.42
1977.22
1.25046e+07
1.98084e+06
671087
353253
219233
147102
104095
76608.8
58017.7
44848.2
35181.7
27880.4
22195.8
17595.1
14032.5
10694.6
6742.59
3065.43
2053.12
1945.11
1928.47
1923.84
1978.59
1.24213e+07
1.97646e+06
671336
353704
219549
147316
104250
76706.6
58077.9
44876.5
35196.2
27887.7
22200.3
17599.5
14042.9
10705.8
6738.7
3059.82
2039.38
1927.01
1920.82
1924.02
1980.09
1.24215e+07
1.97686e+06
672193
354599
220079
147628
104398
76779.4
58112.4
44895.6
35206.8
27889.9
22202.4
17607.4
14059.1
10717.9
6727.24
3051.3
2033.58
1928.83
1921.13
1924.86
1981.57
1.25011e+07
1.98554e+06
673614
355403
220398
147787
104493
76837.2
58142.7
44919.5
35227.5
27905.8
22215.7
17623.6
14075.6
10707.1
6675.42
3024.44
2037.32
1936.24
1926.45
1926.98
1983.99
1.2548e+07
1.99754e+06
686067
363547
225318
150936
106629
78298.3
59141.6
45573.8
35619.2
28117.4
22301.7
17625.4
13984
10409.2
6313.05
2924.75
2071.38
1979.64
1974.59
1976.34
2034.27
1.24857e+07
1.99134e+06
685384
363557
225426
151010
106686
78317.4
59144
45567.9
35616.8
28122.1
22312.5
17634.5
13995.1
10441.9
6365.89
2945.14
2070.94
1979.63
1972.38
1974
2033.82
1.2578e+07
1.99426e+06
676226
356285
221005
148265
104850
77116.5
58367.7
45091.2
35354.7
28000.7
22283.2
17672
14098.3
10628.5
6488.26
2915.79
2046.21
1966.78
1944.35
1940.03
1997.55
1.24981e+07
1.98639e+06
675477
356547
221204
148397
104951
77190.4
58430.1
45137.5
35386.8
28023.6
22300.7
17683.4
14103.2
10613.3
6454.7
2902.38
2046.94
1967.6
1944.18
1941.18
1999.09
1.24162e+07
1.97846e+06
674779
356868
221496
148550
105024
77245.1
58471.5
45171.4
35412
28041.9
22311
17689.5
14106.8
10605.2
6433.36
2893.54
2047.69
1963.66
1947.63
1942.26
2000.92
1.25133e+07
1.98539e+06
676647
357442
221814
148740
105134
77313
58524.2
45212.1
35443.6
28062.4
22322.1
17693.5
14108.2
10593.2
6409.49
2885.31
2048.59
1973.28
1949.49
1943.22
2002.59
1.25353e+07
1.98783e+06
677475
358003
222052
148843
105233
77389.9
58580.5
45249.7
35469.3
28078
22329.2
17696.1
14105.8
10576.5
6385.52
2878.35
2047.67
1966.83
1945.99
1944.06
2004.11
1.24699e+07
1.98509e+06
677628
358488
222332
149012
105360
77476.2
58634.9
45292
35495.1
28089.6
22331.3
17692
14097.6
10558
6364.91
2874.41
2044.72
1954.27
1944.92
1944.98
2005.58
1.24733e+07
1.98565e+06
678834
358986
222532
149178
105454
77542.9
58686.6
45332.3
35521.5
28100.3
22327.4
17680.5
14084.1
10538.6
6346.69
2872.79
2042.15
1953.25
1945.18
1945.96
2007.27
1.23926e+07
1.97792e+06
678711
359066
222672
149320
105564
77616.1
58735
45360.9
35538.1
28105.2
22320.8
17666.8
14069.2
10520.7
6333.72
2873.38
2042.55
1956.3
1946.05
1947.02
2008.65
1.23319e+07
1.97192e+06
678702
359234
222794
149422
105637
77674.4
58778.5
45386.6
35545.4
28100
22305.2
17649.3
14051.7
10504.3
6325.83
2875.86
2045.67
1960.31
1948.33
1948.16
2009.99
1.23321e+07
1.97227e+06
679253
359632
222966
149540
105711
77718.2
58805.1
45401
35550.1
28093.7
22289.3
17631.1
14035.5
10490.2
6321.32
2880.84
2050.18
1964.07
1951.46
1949.36
2011.28
1.24082e+07
1.98035e+06
680403
360244
223276
149704
105832
77797.3
58849.1
45418.1
35554.5
28087.1
22274.9
17615.3
14021.7
10480.2
6321.51
2888.35
2055.18
1969.64
1952.58
1950.58
2012.61
1.2488e+07
1.98882e+06
681029
360647
223597
149824
105922
77862.6
58885.9
45436.3
35554.5
28076.3
22261.1
17600.9
14008.5
10471.8
6327.38
2897.76
2059.42
1981.48
1953.91
1951.82
2013.84
1.24115e+07
1.98149e+06
680928
360704
223740
149966
105980
77888.9
58903
45441.9
35550.6
28067.6
22249.3
17589
13997.5
10467
6339.72
2908.38
2061.85
1986.66
1957.17
1953.06
2014.99
1.24696e+07
1.98754e+06
682415
361421
224082
150140
106042
77907.6
58914.8
45450.5
35548.2
28060.2
22239.7
17580
13988.7
10465.7
6356.87
2920.8
2062.51
1976.75
1961.89
1954.21
2015.92
1.25352e+07
1.99464e+06
683365
361829
224191
150189
106099
77951.4
58930.6
45454.1
35548.8
28056.2
22234.7
17575.1
13984.1
10467.3
6373.28
2934.49
2062.39
1969.48
1958.21
1955.14
2016.82
1.2456e+07
1.98412e+06
682878
361862
224161
150185
106155
78005.8
58962.5
45465.9
35552.5
28054
22232.3
17572.4
13980.4
10471.3
6391.53
2949.42
2063.59
1966.31
1955.91
1955.99
2017.78
1.23946e+07
1.97821e+06
682201
361744
224244
150260
106219
78049
58984.1
45469.9
35548.9
28052.3
22233.2
17572.6
13978.5
10477.7
6413.6
2965.68
2067.45
1968.51
1956.69
1956.88
2018.5
1.23338e+07
1.97482e+06
681733
361751
224405
150396
106293
78085.5
58999.9
45473.1
35541.7
28045
22233.4
17573.2
13977.6
10485
6437.41
2980.7
2071.89
1983.41
1961.4
1957.78
2019.08
1.23951e+07
1.98117e+06
683080
362098
224545
150493
106346
78105.5
59003.5
45467
35530.8
28036.7
22233.3
17574.9
13977.8
10493.5
6462.33
2996.55
2073.82
1997.21
1964.33
1958.65
2019.76
1.23953e+07
1.98157e+06
683505
362619
224811
150591
106386
78117.7
58993.2
45452.1
35517.7
28031.2
22237
17580.8
13980.2
10499.8
6480.13
3010.82
2072.87
1979.49
1961.89
1959.47
2020.14
1.24697e+07
1.98927e+06
684434
363139
225127
150748
106442
78140.1
59007.2
45456.7
35524.2
28044.8
22253.1
17593.5
13982.8
10490.6
6466.66
3010.6
2070.62
1969.58
1961.93
1960.62
2021.63
1.24803e+07
1.99207e+06
694230
369973
229503
153740
108607
79873.4
60475.7
46766
36729.4
29148.1
23238.3
18443.8
14675.5
10905.6
6495.03
2966.63
2132.36
2044.37
2026.17
2026.75
2096.16
1.24803e+07
1.99488e+06
695142
370343
229690
153795
108655
79901.5
60495.6
46781.4
36738.4
29152.5
23240.3
18445.7
14678.8
10909.3
6505.54
2973.37
2130.5
2040.39
2023.38
2023.81
2095.55
1.24802e+07
2.00059e+06
696196
370865
229876
153915
108763
79966.1
60540.4
46816.1
36762
29167.8
23248.2
18449.5
14675.7
10886
6475.45
2969.08
2128.41
2037.27
2023.37
2024.01
2096.19
1.24802e+07
2.00072e+06
696490
371112
229955
153970
108816
80004.5
60570.2
46839.5
36776.1
29174.7
23251.4
18451.1
14670.7
10865.5
6457.41
2968.61
2126.87
2034.96
2023.45
2024.19
2096.98
1.25424e+07
2.00444e+06
697559
371385
230088
154080
108867
80035.4
60595.3
46857.6
36789.5
29183.2
23253.7
18451.2
14662.2
10842.9
6440.83
2970.41
2127.45
2034.24
2023.74
2024.38
2097.72
1.24733e+07
1.99031e+06
685484
363883
225615
151111
106718
78348.7
59156
45577.4
35633.1
28140.7
22329.4
17646.9
14003.7
10450.8
6374.12
2948.89
2076.3
1982.46
1973.08
1975.1
2034.64
1.247e+07
1.99017e+06
686378
364237
225802
151240
106761
78366.7
59171.7
45595.9
35654.4
28162.5
22349.5
17662.1
14017.1
10469.2
6392.27
2953.14
2083.67
1992.34
1979.48
1976.14
2035.34
1.24851e+07
1.99192e+06
686388
364254
225823
151229
106775
78377.1
59188.5
45618.4
35676.3
28184.4
22369.6
17678
14031.4
10486.7
6406.11
2955.32
2087.9
2017.72
1981.61
1977.13
2036.15
1.24849e+07
1.99218e+06
686074
364361
225943
151308
106829
78416.6
59220.5
45646
35699.7
28205.6
22389.4
17696
14049.2
10505.4
6418.95
2958.14
2088.52
2010.48
1981.27
1978.09
2037
1.25469e+07
1.99854e+06
687330
364673
226116
151422
106899
78465.4
59259.2
45675.3
35728.6
28232.8
22414.3
17717.4
14068.2
10523.6
6429.38
2960.43
2087.56
1992.47
1984.63
1979.01
2038.13
1.25467e+07
1.99883e+06
688204
364947
226213
151541
106978
78528.4
59306
45707.3
35757.7
28261.5
22439.8
17739.3
14087.2
10540
6438.43
2962.99
2086.85
1991.71
1984.49
1979.79
2039.06
1.25466e+07
1.99607e+06
688888
365423
226452
151669
107052
78571.5
59344.1
45742
35786.5
28291.9
22466.2
17759.9
14104.9
10554.8
6444.7
2963.82
2087.41
1995.19
1981.52
1980.46
2040.15
1.24733e+07
1.99211e+06
688068
365404
226597
151759
107135
78620.6
59369.6
45772.8
35820.9
28320.5
22489.3
17776.9
14119.2
10566
6447.6
2962.75
2088.23
2005.81
1982.12
1981.16
2041
1.24086e+07
1.98851e+06
687499
365491
226651
151770
107139
78638.4
59400.5
45805.5
35850.5
28347.7
22509.4
17790.4
14130.2
10574
6448.35
2961.57
2087.98
2006.56
1982.88
1981.89
2042.09
1.24737e+07
1.9949e+06
688777
365827
226869
151886
107207
78690.6
59439.5
45840.9
35888.2
28374.4
22524.9
17799.3
14136.6
10581.1
6449.25
2960.68
2087.09
1995.14
1983.32
1982.62
2043.14
1.25325e+07
1.99878e+06
689447
366100
226957
151918
107225
78731.9
59492.2
45887.2
35924.4
28400.3
22538.2
17804.8
14143
10588.9
6450.21
2960.74
2087.26
1993.32
1984.01
1983.36
2044.49
1.25458e+07
1.99702e+06
689611
366417
227102
152039
107336
78800.4
59536.8
45929.1
35959.8
28420.9
22544.8
17806.9
14148.7
10595.5
6450.15
2960.77
2088.41
2003.14
1984.82
1984.13
2045.73
1.25457e+07
1.99705e+06
689296
366418
227267
152176
107425
78855.3
59588.9
45970.5
35984.6
28433
22548.5
17808.6
14152.4
10599.6
6448.2
2960.65
2088.25
2008.64
1985.11
1984.9
2046.71
1.26083e+07
2.00098e+06
689317
366335
227298
152235
107483
78912.8
59638
46005.8
36005
28439.1
22547.5
17808
14156.2
10605.1
6448.8
2962.46
2086.37
1995.49
1985.03
1985.66
2048.11
1.26081e+07
2.00116e+06
689548
366524
227430
152324
107552
78975.8
59682.4
46033.2
36017.8
28439.7
22544.7
17809.5
14165.3
10618.3
6453.96
2966.17
2087.63
1991.07
1985.08
1986.42
2049.31
1.25452e+07
1.9977e+06
689982
366813
227506
152352
107596
79035.3
59727.4
46056.6
36024.6
28440.6
22544.9
17815.1
14177.5
10628.9
6455.41
2969.35
2095.42
1999.98
1987.49
1987.18
2050.65
1.24829e+07
1.99401e+06
690442
367244
227700
152450
107636
79064.4
59751.2
46072.5
36028.4
28437.7
22545.4
17824.3
14189.4
10631
6448.87
2968.42
2101.88
2026.75
1990.41
1987.83
2051.66
1.24743e+07
1.99353e+06
690032
367124
227699
152520
107711
79119.4
59787.1
46087.5
36033.8
28441.6
22553.5
17835.4
14196.6
10626.2
6441.39
2969.42
2098.99
2011.17
1989.49
1988.4
2052.33
1.2471e+07
1.99374e+06
690215
367202
227738
152545
107759
79155.7
59810.9
46102.1
36037.7
28442.4
22559.3
17846
14205.1
10628.9
6443.84
2976.4
2089.42
1993.27
1987.98
1988.93
2053.27
1.24744e+07
1.99378e+06
690474
367506
228057
152739
107837
79191.5
59828
46107.6
36041.8
28448.9
22568
17859.5
14218.5
10638.5
6453.53
2988.31
2085.81
1992.33
1987.68
1989.58
2054.14
1.25333e+07
1.9977e+06
691117
367748
228145
152830
107917
79230.9
59850.6
46119
36046.5
28453.8
22580.6
17877.3
14233
10644.6
6460.85
2998.59
2093.52
1995.73
1988.14
1990.47
2055.05
1.26072e+07
2.00201e+06
692328
368220
228262
152863
107940
79243.1
59856.2
46124
36050.2
28460.2
22595.5
17894.9
14241.5
10641.6
6465.01
3005.62
2104.55
2014.02
1992.65
1991.46
2056.4
1.24744e+07
1.99458e+06
690699
367709
228214
152896
107938
79245.8
59852.5
46121.5
36049.8
28466.7
22610
17908.9
14245.3
10639.8
6475.15
3013.39
2108.89
2031.97
1993.88
1992.54
2057.6
1.24024e+07
1.99038e+06
689960
367468
228180
152881
107948
79257.7
59858.7
46123.5
36056.2
28481.2
22625.9
17919.9
14249.1
10645.8
6494.2
3025.97
2108.65
2009.46
1992.89
1993.74
2058.41
1.24028e+07
1.99068e+06
690131
367588
228265
152920
107964
79270.2
59868
46126.7
36063.3
28493.7
22640.2
17930.8
14256
10657.9
6517.76
3040.04
2109.48
2002.74
1992.76
1995.12
2059.01
1.23419e+07
1.98715e+06
689980
367626
228234
152935
107998
79282.7
59874.6
46131.1
36071.2
28506.2
22657.6
17946.1
14265.5
10672.9
6543.35
3053.21
2113.28
2010.25
1997.9
1996.58
2059.8
1.241e+07
1.99128e+06
691103
368205
228434
152987
108055
79317.6
59889.9
46143.1
36084.3
28521.8
22675
17960.8
14277
10691.3
6570.6
3064.32
2117.61
2020.23
2003.29
1997.99
2060.26
1.24816e+07
1.99551e+06
692352
368509
228524
153060
108072
79335.3
59899.7
46150.4
36098.1
28542.6
22697.2
17979.3
14292.2
10715.8
6601.26
3074.38
2120.66
2022.88
2001.68
1999.32
2061.3
1.25438e+07
2.00209e+06
693599
368846
228702
153195
108132
79351.3
59911.9
46166.1
36118.2
28564.7
22719.2
17998.6
14311.1
10744.2
6632
3084.14
2123.28
2019.51
2001.56
2000.66
2062.6
1.26064e+07
2.00625e+06
694205
369153
228769
153192
108129
79357.6
59922.7
46178
36134
28588.5
22746.7
18024.3
14336.4
10776.4
6661.68
3091.47
2126.03
2021.79
2002.97
2002
2064.1
1.25435e+07
2.00256e+06
693458
369100
228836
153193
108122
79347.7
59913.5
46187.1
36157
28617.3
22777.6
18053.4
14364.8
10809.7
6688.92
3096.9
2128.54
2028.55
2005.77
2003.3
2065.94
1.24812e+07
1.99926e+06
692817
368868
228850
153160
108105
79360.7
59934.3
46208.4
36184.5
28648.4
22810.7
18087.2
14398.6
10845.9
6714.42
3099.92
2130.41
2031.65
2009.26
2004.49
2067.71
1.24811e+07
1.99359e+06
692626
368982
228815
153158
108087
79343
59939.9
46227.2
36214
28687.3
22852.8
18127
14436.2
10882.1
6736.58
3101.21
2131.35
2030.15
2010.12
2005.49
2069.47
1.2414e+07
1.98972e+06
692276
368919
228733
153143
108096
79344.4
59954.3
46255.7
36251.8
28729.7
22897.7
18168.9
14475
10917.3
6755.07
3099.94
2131.23
2028.05
2008.52
2006.33
2071.04
1.23447e+07
1.98576e+06
692115
368997
228784
153169
108122
79374.4
59987.5
46296.6
36297.4
28779.3
22945.8
18212.6
14515.3
10950
6767.11
3096.75
2130.32
2026.4
2008.3
2007.11
2072.53
1.23449e+07
1.98579e+06
692689
369114
228811
153205
108144
79391.8
60013.9
46335.7
36346.9
28832.2
22994.3
18254.6
14552.2
10977.2
6773.04
3091.69
2129.24
2025.74
2008.87
2007.82
2074.05
1.23453e+07
1.98594e+06
692952
369172
228833
153242
108170
79428.9
60054.7
46388.2
36400.9
28884.8
23041.1
18295.2
14587.4
11000.7
6774.83
3085.54
2128.5
2026.3
2009.59
2008.46
2075.2
1.24112e+07
1.99011e+06
693014
369284
228965
153281
108196
79481.2
60107.3
46438.6
36451.9
28931.3
23082.9
18329
14615.5
11017.4
6772.61
3079.71
2128.29
2027.95
2010.37
2009.03
2076.42
1.24807e+07
1.9942e+06
693636
369623
229165
153362
108258
79528.9
60155.6
46488.2
36500.3
28973.3
23117
18358.5
14640.4
11029.5
6765.82
3073.62
2128.36
2030.32
2011.14
2009.52
2077.46
1.24806e+07
1.99708e+06
693879
369822
229228
153402
108303
79587.2
60220.2
46547.7
36546.6
29010.1
23145.3
18379.6
14657.6
11035.5
6756.2
3069.53
2128.53
2032.25
2011.54
2009.94
2078.75
1.24805e+07
2.00011e+06
694267
369954
229309
153486
108371
79638.1
60264.3
46581.1
36574.5
29033.4
23163.1
18394.7
14670.4
11037.1
6744.94
3067.54
2128.79
2032.48
2011.51
2010.29
2080.26
1.24805e+07
1.99987e+06
694863
370064
229270
153501
108426
79664.6
60288.6
46607.2
36595
29047
23173.8
18403.5
14676.8
11030.5
6725.83
3065.13
2129.08
2031.87
2011.36
2010.59
2081.44
1.24804e+07
1.99754e+06
694915
370151
229374
153585
108467
79715.7
60325.3
46630.5
36616.9
29067.1
23189.4
18414.7
14678.7
11004.2
6676.43
3052.44
2129.51
2033.19
2011.72
2010.92
2083.27
1.24259e+07
2.00314e+06
708079
379828
235529
157897
111869
82585.8
62807.2
48800.2
38505.2
30692.7
24557.6
19499.7
15460.2
11631
7380.01
3636.95
2302.76
2138.79
2107.57
2112.99
2263.86
1.24703e+07
2.00531e+06
708876
379942
235536
157890
111893
82606.7
62822.1
48809.4
38513.9
30704.1
24575.5
19525.1
15491.5
11674.3
7428.68
3666.22
2305.06
2136.78
2105.8
2112.56
2265.34
1.24737e+07
2.00378e+06
708938
379980
235551
157938
111921
82642.9
62862.3
48848.7
38546.3
30732.7
24602.1
19551.1
15515
11688.9
7430.02
3664.36
2305.87
2133.57
2106.53
2113.52
2268.15
1.24086e+07
1.99984e+06
708711
380121
235650
158029
111981
82689
62895.7
48880.4
38577.3
30762.4
24630
19578.2
15539.7
11707.7
7440.11
3669.42
2307.03
2132.55
2107.37
2114.4
2269.47
1.24552e+07
2.00468e+06
709755
380471
235775
158086
112017
82720.9
62931.5
48910.4
38606
30788.4
24655.4
19603.5
15561.4
11720.9
7445.44
3672.44
2308.51
2134.49
2108.42
2115.19
2271.09
1.24549e+07
2.00485e+06
709463
380570
235897
158150
112072
82752.1
62959.3
48939.3
38631.9
30813.5
24680.9
19626.9
15578.5
11729.6
7448.17
3674.26
2310.06
2138.54
2109.51
2116
2272.95
1.2412e+07
2.00251e+06
709442
380411
235770
158125
112081
82771.9
62990.9
48972.4
38663
30841.9
24705.8
19646.7
15592.8
11736
7451.07
3676.66
2311.06
2142.01
2110.46
2116.87
2275.59
1.23666e+07
1.99996e+06
709485
380511
235835
158172
112107
82806.6
63029.2
49008.3
38694.6
30869.1
24728.4
19663
15601.6
11738.9
7454.73
3680.05
2311.33
2141.39
2111.25
2117.83
2279.04
1.23669e+07
1.9984e+06
709124
380543
235905
158243
112175
82869.9
63080.6
49052.6
38730
30897.5
24749.6
19676.2
15607.5
11741.1
7459.24
3683.95
2311.33
2138.58
2112.05
2118.86
2282.44
1.24289e+07
2.00009e+06
709565
380835
236137
158370
112262
82942.9
63134.2
49090.5
38761.1
30919.3
24763.5
19683.2
15608.6
11742.1
7466.21
3688.77
2311.87
2137.54
2113.03
2119.93
2285.54
1.25423e+07
2.00736e+06
697873
371444
230206
154160
108909
80084.4
60630.8
46880.3
36801.8
29189.6
23257.3
18450
14651.3
10818.8
6426.83
2974.03
2131.1
2034.12
2024.93
2024.54
2098.59
1.248e+07
1.99843e+06
696345
371084
230163
154197
108948
80129.1
60664.6
46901.2
36816.9
29196.2
23255.9
18444.5
14636.7
10795
6418.04
2980.21
2137.36
2039.51
2027.97
2024.67
2099.18
1.248e+07
1.99298e+06
695623
371140
230124
154203
109002
80157.6
60683.2
46912
36821.8
29199.7
23255.4
18435.7
14617.6
10770.9
6413.33
2987.99
2143.56
2076.33
2027.7
2024.73
2099.97
1.248e+07
1.9957e+06
696437
371494
230314
154295
109043
80178.2
60698.7
46922.1
36828.2
29200.7
23250.4
18424.6
14596.7
10748.5
6413.75
2997.06
2147.83
2078.27
2026.17
2024.77
2100.38
1.24799e+07
1.99609e+06
696763
371705
230512
154415
109098
80214.5
60722.3
46932.7
36832.2
29201.8
23244.8
18409.1
14572.1
10728.7
6418.67
3006.5
2149.18
2036.1
2024.42
2024.83
2100.37
1.24799e+07
1.99862e+06
696997
371773
230558
154431
109121
80232.4
60737.4
46947.4
36842.1
29201.6
23234.3
18389.7
14546.6
10712.8
6428.26
3016.4
2143.34
2030.55
2023.37
2024.97
2100.58
1.24799e+07
2.0016e+06
697973
371959
230594
154456
109132
80244.2
60740.1
46952.3
36844.8
29198.5
23222.1
18368.6
14522.2
10702.4
6442.92
3027.92
2135.01
2032.31
2023.25
2025.2
2100.5
1.24798e+07
1.99648e+06
697317
372075
230591
154414
109106
80245
60752.6
46958.6
36843.9
29190.7
23206.6
18346.2
14500.1
10698.6
6462.43
3038.63
2130.82
2033.94
2023.3
2025.53
2100.8
1.24798e+07
1.99641e+06
696858
372159
230615
154400
109131
80266.8
60769.7
46967.7
36843.3
29183.4
23193.6
18327.4
14483.5
10701.6
6484.54
3048.46
2131.3
2034.36
2023.42
2025.98
2101.09
1.24176e+07
1.99283e+06
696617
372131
230652
154466
109189
80305.8
60790.8
46972.4
36843.2
29176.3
23181.1
18310.3
14471.9
10710.4
6508.09
3058.19
2135.66
2034.02
2023.53
2026.54
2101.43
1.2353e+07
1.9865e+06
696256
372095
230710
154524
109216
80318.4
60791.1
46973.7
36842.8
29172.6
23173.4
18299.3
14466.6
10724.9
6532.8
3067.69
2143.75
2034.75
2023.87
2027.25
2101.58
1.24146e+07
1.99296e+06
696907
372267
230883
154651
109274
80353.7
60804.7
46983.1
36847.3
29172.1
23167.8
18292.8
14467.9
10744.7
6557.84
3076.41
2153.08
2043.28
2029.22
2027.98
2101.87
1.24797e+07
1.99679e+06
697545
372497
231013
154679
109267
80337.2
60805.6
46982.2
36845.4
29171.2
23165.5
18291.3
14475.8
10767.1
6579.82
3082.49
2158.51
2078.11
2031.9
2028.64
2102.53
1.24797e+07
1.99944e+06
698233
372605
231135
154757
109324
80364.5
60824.1
46997
36852.7
29173.4
23167.8
18297.3
14489.5
10789.2
6597.38
3087.46
2159.31
2079.03
2030.58
2029.32
2103.21
1.24797e+07
2.00238e+06
698678
372727
231115
154744
109317
80374.5
60832.3
47005.6
36860.9
29179.6
23176.2
18309.2
14506.3
10811.4
6612
3090.28
2156.75
2042.54
2029.83
2030
2103.67
1.24797e+07
1.99732e+06
697491
372589
231116
154773
109343
80401.7
60855.5
47024.1
36870.5
29185.5
23186.9
18326.1
14527.8
10833.3
6623.28
3092.28
2151.57
2038.46
2029.81
2030.68
2104.44
1.24797e+07
1.99714e+06
698046
372626
231076
154794
109373
80420.9
60876.2
47043.7
36884.9
29199.2
23202.5
18345.3
14550
10854.2
6632.1
3092.94
2147.38
2040.72
2030.09
2031.38
2105.29
1.24797e+07
1.99745e+06
698746
372932
231205
154843
109400
80451.6
60905.5
47062.8
36900.6
29213.5
23222.7
18369.6
14573.5
10872.4
6637.94
3093.11
2146.18
2042.54
2030.57
2032.11
2106.6
1.25404e+07
2.00091e+06
698691
372964
231334
154949
109460
80490.2
60930.1
47079.8
36917.3
29232.1
23244
18392.6
14595.7
10888.6
6642.42
3093
2147.59
2043.88
2031.28
2032.89
2108.14
1.25435e+07
2.00384e+06
698963
373159
231425
155003
109528
80541.4
60959.1
47101
36935.5
29253.1
23268.1
18417.2
14617.5
10903.5
6647.03
3095.13
2150.9
2046
2032.46
2033.68
2109.52
1.24797e+07
2.00284e+06
699361
373272
231428
155018
109575
80579.5
60982.2
47117.9
36950.5
29272.9
23292
18441.4
14639.1
10916.7
6649.69
3097.08
2155.28
2050.38
2034.04
2034.46
2110.73
1.24797e+07
2.00282e+06
700044
373479
231492
155053
109625
80611.8
61010.6
47146
36981.4
29300.3
23317.2
18465
14658.5
10927.6
6652.88
3100.16
2159.92
2059.5
2035.27
2035.25
2112.32
1.24797e+07
2.00023e+06
699467
373416
231550
155125
109682
80658.7
61044.3
47174.4
37007.6
29325.5
23340.6
18486.3
14675.2
10935.8
6653.79
3102.6
2163.51
2071.14
2036.05
2036.06
2114.07
1.24797e+07
2.00301e+06
699759
373594
231610
155175
109709
80685.9
61075.2
47201.8
37031.4
29348.1
23363.1
18506.1
14690
10941.4
6654.55
3105.35
2164.97
2067.77
2036.51
2036.85
2115.67
1.24798e+07
2.00309e+06
699982
374001
231952
155342
109788
80732.5
61111.5
47235.2
37058.6
29370.9
23382.7
18522.3
14700.6
10944.8
6654.58
3108.24
2163.84
2055.28
2036.76
2037.65
2117.47
1.2539e+07
2.00679e+06
700441
374096
232046
155401
109821
80768.6
61152.1
47270.2
37088.9
29394.9
23401.9
18537.4
14710.9
10948
6655.66
3111.96
2160.99
2050.18
2037.07
2038.47
2119.05
1.25421e+07
2.00686e+06
701079
374275
232039
155434
109880
80817.4
61186.2
47294.7
37105.9
29410.8
23416.2
18548.6
14717.7
10949.6
6658.09
3116.79
2158.98
2049.82
2037.53
2039.33
2120.48
1.24798e+07
2.00068e+06
700686
374327
232088
155484
109911
80859.2
61228.1
47326.5
37126.7
29424
23428.1
18558.4
14722.1
10950.8
6661.49
3121.59
2159.84
2050.83
2038.23
2040.25
2121.85
1.24799e+07
1.99832e+06
700137
374264
232156
155599
109983
80897.4
61249.4
47339.1
37136.5
29435.5
23439.7
18566.9
14726.1
10952.6
6666.78
3127.54
2163.76
2052.83
2039.67
2041.19
2123.06
1.24799e+07
1.99821e+06
699837
374130
232160
155583
110005
80919.2
61262.4
47351.2
37148.5
29445
23448.4
18573.6
14730.1
10956.7
6674.64
3134.35
2169.44
2058.89
2042.51
2042.13
2124.19
1.24799e+07
2.00104e+06
700177
374388
232355
155670
110052
80953.1
61275.4
47357.4
37158.2
29455.4
23456.6
18580.7
14735.4
10962.4
6683.34
3140.92
2174.34
2074.63
2043.95
2043.05
2125.52
1.248e+07
2.00112e+06
700816
374664
232373
155661
110035
80932.4
61272.4
47359.4
37163.3
29465.4
23468.7
18590.7
14742.8
10969.9
6693.66
3148.31
2177
2079.87
2044.36
2043.95
2126.55
1.24181e+07
1.99527e+06
700438
374661
232423
155735
110077
80951.6
61277.2
47365.5
37174.3
29479.5
23482.7
18601.9
14751.9
10979.2
6705.07
3156.42
2177.99
2065.58
2044.88
2044.82
2127.35
1.24751e+07
1.99846e+06
700976
374716
232364
155749
110088
80965.9
61296.6
47381.3
37191.9
29499.9
23502.2
18616.5
14762.1
10989.4
6717.35
3165.58
2178.46
2059.77
2045.83
2045.66
2128.64
1.25985e+07
2.0083e+06
702426
375057
232449
155770
110093
80973.7
61316.4
47405
37214.7
29520.4
23520.1
18630.8
14772.8
10999.4
6728.22
3174.45
2180.44
2060.69
2047.25
2046.45
2129.67
1.25405e+07
2.00266e+06
701566
374836
232435
155761
110092
80995.5
61337.1
47431.8
37242.1
29545.1
23539
18645.4
14784.4
11010.5
6739.54
3182.85
2184.25
2070.84
2048.19
2047.19
2130.55
1.24802e+07
1.99894e+06
701291
374894
232507
155756
110120
81027.7
61367
47457
37264.2
29565
23556.6
18659.6
14795.6
11020.8
6750.12
3190.47
2187.46
2088.68
2048.38
2047.89
2131.67
1.24803e+07
2.00159e+06
701554
375172
232653
155814
110169
81061.4
61393.2
47484.1
37289.3
29586.5
23573.5
18672.1
14805.9
11031.1
6760.04
3197.68
2187.98
2075
2048.08
2048.57
2132.54
1.24803e+07
2.0017e+06
702158
375060
232555
155822
110170
81082.2
61420.6
47511.3
37315.2
29605.6
23590.1
18686.6
14817.4
11040.4
6768.68
3205.11
2185.33
2060.48
2047.86
2049.26
2134.06
1.24804e+07
2.00172e+06
702313
375236
232672
155894
110206
81108.4
61449.3
47536.7
37335.1
29624.2
23604.9
18699.2
14826.8
11046.9
6775.54
3213.5
2182.21
2059.06
2047.94
2050.01
2135.41
1.24805e+07
2.00195e+06
701463
375121
232635
155851
110217
81121.5
61458.8
47549.3
37351.1
29640.9
23619.9
18710.6
14835.7
11053.2
6783.24
3223.72
2182.96
2060.17
2048.31
2050.89
2136.79
1.24806e+07
2.00208e+06
701632
375247
232704
155886
110235
81139.2
61482.7
47567.5
37367.3
29654.5
23633
18722.1
14842.8
11058.2
6791.23
3233.63
2188.69
2062.85
2049.62
2051.87
2138.07
1.25361e+07
2.00548e+06
702539
375596
232811
155909
110261
81158.3
61499.2
47587.5
37386.7
29671.5
23645.8
18730.9
14848.2
11062.2
6799.17
3243.18
2196.13
2074.42
2052.68
2052.86
2139.44
1.24768e+07
1.99943e+06
702661
375538
232803
155939
110276
81165
61507.9
47603.6
37404.1
29686.3
23658
18740.6
14854.1
11065.9
6807.21
3252.93
2200.79
2093.83
2053.82
2053.88
2141.15
1.24189e+07
1.99602e+06
702029
375375
232800
155956
110286
81183.8
61524.6
47619.5
37418.3
29698
23667.8
18749
14858.3
11069.5
6817.58
3264.46
2202.34
2082.86
2053.9
2054.97
2143
1.24189e+07
1.99633e+06
701705
375321
232831
155986
110301
81201.1
61545.7
47636.1
37431.1
29709.3
23678.1
18756.6
14862.6
11074.1
6829.21
3277.3
2203.17
2069.49
2054.21
2056.13
2144.48
1.2419e+07
1.99628e+06
701810
375451
232900
156030
110348
81230.9
61573.8
47659.1
37448.3
29725.3
23692.6
18766.7
14867.1
11079
6843.18
3292.24
2205.83
2069.72
2055.26
2057.44
2146.52
1.24811e+07
2.00266e+06
702457
375742
233090
156099
110376
81250.9
61596.4
47676.7
37460.9
29735.8
23702.2
18774.5
14871.4
11086.3
6859.69
3307.44
2211.64
2076.31
2058.27
2058.77
2148.55
1.24812e+07
2.00276e+06
703052
376053
233181
156145
110417
81287.1
61619.4
47696.6
37478.5
29750.6
23714
18782.5
14875.9
11094.4
6877.36
3322.31
2217.97
2093.06
2060.94
2060.12
2150.93
1.25352e+07
2.00606e+06
703994
376494
233320
156219
110451
81316.3
61642.4
47710.9
37488.1
29760.9
23725.6
18791.9
14881.2
11104.2
6896.21
3336.25
2221.64
2099.85
2061.4
2061.49
2153.27
1.25384e+07
2.00623e+06
703672
376201
233240
156256
110486
81337.2
61657.5
47725.6
37503.6
29774.7
23736.1
18799
14887.2
11116.4
6917.01
3350.79
2223.31
2083.52
2061.74
2062.86
2155.59
1.24815e+07
2.00308e+06
703492
376191
233167
156242
110509
81366.1
61673.3
47737.8
37519.3
29790.5
23748.4
18808
14895.7
11132.4
6940.27
3366.11
2225.32
2078.83
2062.82