/*--------------------------------*- C++ -*----------------------------------*\
  =========                 |
  \\      /  F ield         | OpenFOAM: The Open Source CFD Toolbox
   \\    /   O peration     | Website:  https://openfoam.org
    \\  /    A nd           | Version:  10
     \\/     M anipulation  |
\*---------------------------------------------------------------------------*/
FoamFile
{
    format      ascii;
    class       volScalarField;
    location    "100";
    object      p;
}
// * * * * * * * * * * * * * * * * * * * * * * * * * * * * * * * * * * * * * //

dimensions      [0 2 -2 0 0 0 0];

internalField   nonuniform List<scalar> 
96890
(
103.717
103.714
103.717
103.72
103.719
103.725
103.729
103.737
103.746
103.756
103.769
103.785
103.801
103.82
103.842
103.866
103.891
103.913
103.931
103.945
103.937
103.873
103.809
-229.867
-229.867
-229.866
-229.863
-229.857
-229.849
-229.836
-229.818
-229.794
-229.763
-229.721
-229.667
-229.598
-229.508
-229.391
-229.242
-229.054
-228.813
-228.526
-228.164
-227.762
-227.234
-226.746
-231.2
-231.199
-231.198
-231.196
-231.191
-231.183
-231.172
-231.156
-231.135
-231.108
-231.072
-231.024
-230.963
-230.884
-230.783
-230.653
-230.493
-230.289
-230.046
-229.706
-229.25
-228.611
-228.038
169.476
169.449
169.408
169.347
169.273
169.206
169.171
169.175
169.204
169.258
169.355
169.51
169.752
170.161
170.718
171.419
172.295
173.22
174.103
174.812
175.182
175.01
174.134
204.948
205.343
205.905
206.713
207.795
209.212
211.186
213.887
217.475
221.891
227.062
233.212
240.245
247.762
255.699
263.696
271.058
277.135
281.261
283.129
282.583
277.838
271.737
155.395
155.396
155.396
155.398
155.4
155.407
155.415
155.425
155.44
155.456
155.48
155.509
155.544
155.589
155.641
155.702
155.769
155.841
155.901
155.925
155.857
155.66
155.122
162.741
162.74
162.74
162.742
162.749
162.755
162.775
162.801
162.837
162.889
162.957
163.045
163.159
163.298
163.466
163.663
163.887
164.138
164.389
164.591
164.669
164.529
164.191
118.149
118.149
118.149
118.151
118.155
118.156
118.162
118.169
118.178
118.187
118.198
118.211
118.227
118.244
118.261
118.279
118.296
118.315
118.329
118.332
118.322
118.311
118.252
123.542
123.542
123.543
123.545
123.547
123.551
123.556
123.561
123.569
123.579
123.589
123.599
123.611
123.624
123.635
123.643
123.648
123.647
123.639
123.612
123.55
123.448
123.187
129.084
129.084
129.084
129.086
129.09
129.094
129.1
129.108
129.117
129.129
129.143
129.159
129.176
129.195
129.213
129.228
129.24
129.247
129.243
129.222
129.166
129.079
128.966
135.121
135.121
135.121
135.123
135.127
135.13
135.134
135.142
135.149
135.159
135.17
135.181
135.193
135.204
135.213
135.215
135.211
135.197
135.166
135.105
134.99
134.801
134.363
141.482
141.482
141.482
141.485
141.486
141.493
141.496
141.505
141.515
141.526
141.538
141.551
141.565
141.578
141.587
141.591
141.586
141.569
141.531
141.458
141.322
141.121
140.728
148.257
148.258
148.257
148.26
148.265
148.268
148.276
148.286
148.296
148.312
148.329
148.348
148.37
148.394
148.417
148.439
148.459
148.472
148.468
148.433
148.334
148.165
147.812
113.073
113.073
113.073
113.076
113.077
113.083
113.089
113.098
113.107
113.121
113.138
113.157
113.179
113.205
113.235
113.266
113.298
113.33
113.356
113.367
113.349
113.267
112.99
165.31
165.545
166.054
166.833
167.94
169.391
171.094
172.951
174.873
176.799
178.692
180.535
182.192
183.56
184.855
186.265
187.668
189.001
190.026
190.524
190.392
189.413
187.578
108.418
108.418
108.419
108.419
108.423
108.426
108.431
108.437
108.446
108.456
108.468
108.483
108.5
108.521
108.546
108.574
108.606
108.644
108.691
108.752
108.836
108.945
109.105
67.3005
67.3001
67.3009
67.3012
67.3049
67.3073
67.3123
67.3192
67.3286
67.3407
67.3553
67.3744
67.3979
67.427
67.4621
67.5052
67.5572
67.619
67.687
67.7626
67.8319
67.9181
67.8766
99.2969
99.3008
99.2996
99.3011
99.3039
99.3077
99.3141
99.3224
99.3314
99.3449
99.3607
99.3804
99.4022
99.4281
99.4584
99.4933
99.533
99.5767
99.6222
99.6608
99.6805
99.6739
99.6117
95.2042
95.2043
95.2051
95.2057
95.2081
95.2127
95.2185
95.225
95.2343
95.2449
95.2601
95.2781
95.298
95.3232
95.3526
95.3874
95.429
95.4777
95.5325
95.5899
95.6478
95.7209
95.7984
91.2415
91.242
91.2425
91.2432
91.2452
91.2493
91.2549
91.2595
91.2678
91.2776
91.2908
91.305
91.323
91.3447
91.3695
91.3994
91.4356
91.4775
91.5239
91.5701
91.6209
91.6894
91.7143
87.3454
87.3458
87.3462
87.3472
87.3493
87.3543
87.3577
87.3654
87.3742
87.3854
87.3991
87.4158
87.4363
87.4597
87.4876
87.52
87.5587
87.6049
87.6552
87.6976
87.7409
87.7754
87.696
83.6932
83.6908
83.6946
83.6932
83.6977
83.7
83.7064
83.7146
83.7239
83.7373
83.7524
83.772
83.7947
83.8232
83.8564
83.8964
83.9446
84.0037
84.0711
84.1353
84.2011
84.2327
84.1766
80.3023
80.3053
80.303
80.3055
80.3074
80.3105
80.3162
80.3215
80.3313
80.3418
80.3566
80.3736
80.3954
80.4225
80.4558
80.497
80.5487
80.6126
80.689
80.7796
80.8941
81.0045
81.1878
76.9468
76.947
76.9481
76.9483
76.9506
76.9539
76.9579
76.9646
76.972
76.9823
76.9953
77.0109
77.0315
77.0563
77.088
77.1278
77.1777
77.2385
77.3103
77.3963
77.4985
77.58
77.7321
73.6103
73.6106
73.6096
73.6123
73.6125
73.6173
73.6216
73.628
73.636
73.6478
73.6613
73.6794
73.7016
73.7285
73.7627
73.8047
73.8565
73.9184
73.9911
74.0795
74.1727
74.2606
74.4754
70.3618
70.361
70.3619
70.3632
70.3654
70.3691
70.3741
70.381
70.3906
70.4026
70.4168
70.4355
70.4588
70.4866
70.5206
70.5623
70.6117
70.6697
70.7357
70.8097
70.8739
70.9562
71.1194
14.8392
14.8394
14.8404
14.8405
14.843
14.8459
14.8508
14.8567
14.8656
14.8762
14.8907
14.9092
14.9325
14.9619
14.9985
15.0443
15.1026
15.1735
15.261
15.3606
15.4869
15.6223
15.7969
12.8758
12.8758
12.8753
12.8772
12.8783
12.8809
12.8846
12.8897
12.8966
12.906
12.9181
12.9335
12.9539
12.9799
13.0129
13.0549
13.1098
13.1761
13.2567
13.3468
13.4578
13.5662
13.6964
64.4105
64.41
64.4107
64.4122
64.4143
64.4167
64.4209
64.4269
64.4353
64.4455
64.4589
64.4751
64.4962
64.5221
64.5549
64.5956
64.6466
64.7094
64.7805
64.8698
64.9777
65.1158
65.2366
61.5242
61.5249
61.5249
61.5268
61.5271
61.5305
61.5343
61.5396
61.5465
61.5563
61.5691
61.5845
61.6041
61.6289
61.6599
61.6982
61.7462
61.8062
61.874
61.956
62.0387
62.1203
62.2111
58.6743
58.6748
58.6752
58.6759
58.6789
58.6814
58.6866
58.6935
58.7017
58.7135
58.7277
58.7462
58.7689
58.7975
58.8341
58.8787
58.9348
59.0036
59.0818
59.1796
59.2834
59.4119
59.5759
55.918
55.9161
55.9189
55.9183
55.9209
55.9241
55.9296
55.936
55.9455
55.9565
55.9724
55.9908
56.0152
56.0457
56.0837
56.1297
56.1874
56.2578
56.3385
56.4357
56.5366
56.6737
56.8126
53.2897
53.292
53.2903
53.2936
53.294
53.2977
53.3025
53.3089
53.3177
53.3296
53.3439
53.3625
53.3859
53.4151
53.4518
53.496
53.5507
53.6173
53.6935
53.7838
53.8787
54.0122
54.1056
50.7778
50.7776
50.779
50.7787
50.7806
50.7836
50.7874
50.7932
50.8007
50.8103
50.8224
50.8385
50.858
50.8832
50.9152
50.955
51.0056
51.0682
51.1413
51.2274
51.3188
51.432
51.4726
48.2465
48.2467
48.247
48.2476
48.2501
48.2534
48.2574
48.2641
48.2725
48.2834
48.2981
48.3165
48.3394
48.368
48.4042
48.449
48.5063
48.5755
48.6572
48.7586
48.8732
49.0151
49.1552
45.7795
45.7803
45.7807
45.7805
45.7838
45.7857
45.791
45.7972
45.8056
45.8162
45.8304
45.8483
45.8706
45.8989
45.9347
45.9803
46.0374
46.1078
46.1919
46.295
46.4112
46.5572
46.7271
43.3269
43.3272
43.3272
43.3283
43.3301
43.3338
43.3379
43.345
43.3538
43.3656
43.3804
43.3998
43.4235
43.4537
43.4918
43.5402
43.6003
43.6726
43.7594
43.8646
43.9802
44.125
44.2755
40.9643
40.9646
40.9647
40.9657
40.9681
40.9712
40.9761
40.983
40.9921
41.0037
41.0194
41.0381
41.0628
41.0932
41.1316
41.1795
41.2389
41.311
41.3986
41.502
41.617
41.7665
41.9145
38.7053
38.7048
38.7046
38.7069
38.7075
38.7107
38.7148
38.7199
38.7274
38.737
38.7489
38.7646
38.7847
38.8093
38.841
38.8814
38.9335
38.998
39.0779
39.1718
39.278
39.417
39.5475
36.3727
36.3726
36.3725
36.3739
36.3767
36.3782
36.3835
36.3888
36.3967
36.4072
36.4206
36.4378
36.4594
36.4865
36.5211
36.5647
36.6211
36.6893
36.7726
36.871
36.9854
37.1311
37.2533
34.0734
34.0739
34.0755
34.0748
34.077
34.0814
34.0849
34.092
34.1006
34.1115
34.1258
34.1444
34.1674
34.1968
34.2334
34.2802
34.3391
34.4108
34.4992
34.5999
34.724
34.8752
35.0171
31.8307
31.83
31.8292
31.832
31.8338
31.836
31.8409
31.8473
31.8551
31.8659
31.8798
31.8978
31.9208
31.9496
31.9861
32.0325
32.0921
32.1642
32.2537
32.3564
32.4876
32.6341
32.7785
29.5934
29.5939
29.5949
29.5953
29.5966
29.6011
29.606
29.6129
29.6228
29.635
29.6511
29.6715
29.6982
29.7314
29.7732
29.8263
29.8931
29.9724
30.0687
30.1793
30.321
30.4612
30.6257
27.4921
27.4917
27.4928
27.4921
27.4951
27.4971
27.5014
27.5067
27.5145
27.5252
27.5387
27.5558
27.5785
27.6073
27.6439
27.6913
27.7524
27.8296
27.9268
28.0395
28.1878
28.341
28.5971
25.3095
25.3113
25.3098
25.3117
25.3131
25.3155
25.319
25.3237
25.3314
25.341
25.3531
25.3688
25.3894
25.4163
25.4505
25.4936
25.5506
25.622
25.7119
25.8163
25.951
26.1061
26.3587
23.1184
23.1188
23.1189
23.1192
23.1221
23.1243
23.1278
23.1338
23.1415
23.1518
23.1649
23.1811
23.2023
23.2293
23.2638
23.306
23.3605
23.4264
23.5066
23.5937
23.7019
23.8155
23.9339
21.0127
21.0126
21.0128
21.0137
21.0152
21.0179
21.0218
21.0265
21.0343
21.0443
21.0567
21.0731
21.0941
21.1212
21.1556
21.1993
21.2555
21.3227
21.4054
21.4969
21.613
21.7238
21.8292
18.9037
18.9044
18.9043
18.9057
18.9074
18.911
18.9156
18.9226
18.9315
18.9428
18.9586
18.9783
19.0035
19.0357
19.0768
19.1288
19.1937
19.2717
19.3689
19.4816
19.6291
19.7822
20.0035
16.8534
16.8527
16.8529
16.8544
16.8561
16.8595
16.8645
16.8713
16.88
16.8921
16.9074
16.9273
16.9526
16.9849
17.0261
17.0775
17.1416
17.2201
17.3189
17.432
17.5795
17.7438
17.9957
-55.6651
-55.6649
-55.6645
-55.6637
-55.6623
-55.6603
-55.6562
-55.6515
-55.6442
-55.6348
-55.6223
-55.6059
-55.5844
-55.5569
-55.5212
-55.4757
-55.4186
-55.3475
-55.2609
-55.1547
-55.0284
-54.8784
-54.6895
-56.9722
-56.9717
-56.9718
-56.9707
-56.9689
-56.966
-56.9619
-56.9561
-56.9482
-56.9378
-56.924
-56.9062
-56.883
-56.8534
-56.8153
-56.7669
-56.7061
-56.6313
-56.5416
-56.4327
-56.3052
-56.1538
-55.9694
-58.2356
-58.2353
-58.2359
-58.2342
-58.2331
-58.2297
-58.2254
-58.2196
-58.2113
-58.2006
-58.1866
-58.1679
-58.1439
-58.1132
-58.0742
-58.0247
-57.963
-57.8866
-57.7949
-57.6839
-57.5525
-57.3928
-57.2026
-59.4689
-59.4697
-59.4688
-59.4686
-59.4661
-59.4635
-59.4599
-59.4542
-59.4464
-59.4361
-59.4221
-59.4044
-59.3811
-59.351
-59.3123
-59.2627
-59.201
-59.1238
-59.0305
-58.9175
-58.7835
-58.6222
-58.4392
-60.7177
-60.7181
-60.7178
-60.7167
-60.7149
-60.7121
-60.7079
-60.702
-60.6939
-60.6831
-60.669
-60.6502
-60.6258
-60.5948
-60.5548
-60.5039
-60.4397
-60.3592
-60.2614
-60.1425
-60.0005
-59.8267
-59.6171
10.9099
10.91
10.9111
10.9114
10.9132
10.916
10.9195
10.9259
10.9329
10.943
10.9553
10.9717
10.9928
11.0198
11.0537
11.0964
11.152
11.2197
11.3024
11.3989
11.5211
11.6528
11.8304
8.94089
8.94104
8.94136
8.94165
8.94401
8.94693
8.95196
8.9578
8.96663
8.97732
8.99159
9.01012
9.03386
9.06365
9.10125
9.14832
9.20843
9.28115
9.36868
9.46957
9.59083
9.71895
9.89143
7.0533
7.05334
7.05306
7.05521
7.05672
7.05983
7.06407
7.07016
7.07824
7.08845
7.10199
7.12002
7.14323
7.17296
7.21049
7.25795
7.31903
7.39354
7.48483
7.59243
7.72481
7.88142
8.08796
5.16387
5.16382
5.16456
5.1658
5.16767
5.17092
5.17565
5.18239
5.19141
5.20298
5.21831
5.23833
5.26394
5.29596
5.33636
5.38707
5.45092
5.52758
5.61938
5.72478
5.8493
5.99345
6.15666
3.4213
3.42092
3.42174
3.42239
3.42467
3.42711
3.43119
3.43683
3.44439
3.45434
3.4676
3.48451
3.50673
3.53472
3.57049
3.61636
3.67556
3.74751
3.83577
3.93895
4.06299
4.20651
4.35385
1.63001
1.63023
1.63103
1.63155
1.63324
1.6365
1.63997
1.64631
1.65402
1.66452
1.67861
1.69679
1.71942
1.74906
1.7864
1.83391
1.89465
1.96748
2.05715
2.1635
2.29234
2.44679
2.6372
-0.109552
-0.110649
-0.109348
-0.108874
-0.106504
-0.104301
-0.0996001
-0.0945521
-0.0868821
-0.0764808
-0.0633985
-0.0465448
-0.0246545
0.00331163
0.0390882
0.0849198
0.144231
0.216374
0.305149
0.409572
0.534933
0.681938
0.838132
-1.87086
-1.86851
-1.87082
-1.86858
-1.86763
-1.86439
-1.86013
-1.85369
-1.84534
-1.83451
-1.82008
-1.80096
-1.77696
-1.74585
-1.70703
-1.65797
-1.59506
-1.51961
-1.42736
-1.31913
-1.18857
-1.03335
-0.849506
-3.55826
-3.55958
-3.55802
-3.55758
-3.55581
-3.55289
-3.54891
-3.54392
-3.53642
-3.52635
-3.51351
-3.49705
-3.47513
-3.44779
-3.41264
-3.3673
-3.30917
-3.23763
-3.14941
-3.04688
-2.91939
-2.76167
-2.57962
-5.28792
-5.28696
-5.2878
-5.28685
-5.28453
-5.28224
-5.27783
-5.27137
-5.26346
-5.25298
-5.23862
-5.22
-5.1963
-5.16652
-5.12824
-5.07961
-5.018
-4.94422
-4.85509
-4.75275
-4.62694
-4.49032
-4.37405
-6.94824
-6.95008
-6.94825
-6.94741
-6.94599
-6.94212
-6.93765
-6.93162
-6.92317
-6.91079
-6.89574
-6.87623
-6.85081
-6.81891
-6.77807
-6.72678
-6.66203
-6.5842
-6.48929
-6.37977
-6.23791
-6.08062
-5.88833
-8.51206
-8.51111
-8.51141
-8.51081
-8.50938
-8.50697
-8.50344
-8.49873
-8.49132
-8.48235
-8.47038
-8.45419
-8.43304
-8.4063
-8.37199
-8.32782
-8.2708
-8.20026
-8.11402
-8.01314
-7.8806
-7.74075
-7.56283
-10.1464
-10.1472
-10.1468
-10.1458
-10.1442
-10.142
-10.138
-10.1324
-10.1249
-10.1152
-10.1025
-10.0856
-10.0638
-10.0362
-10.0008
-9.95537
-9.89655
-9.82451
-9.73721
-9.6329
-9.49941
-9.37074
-9.18618
-11.7571
-11.7571
-11.7564
-11.7554
-11.7543
-11.7522
-11.7485
-11.7431
-11.7358
-11.7262
-11.7138
-11.6974
-11.6757
-11.6483
-11.6126
-11.567
-11.5086
-11.4359
-11.347
-11.2399
-11.1076
-10.9762
-10.7478
-13.3927
-13.3927
-13.3921
-13.391
-13.3896
-13.387
-13.3828
-13.3766
-13.3688
-13.3579
-13.3441
-13.326
-13.303
-13.2737
-13.2359
-13.1877
-13.126
-13.0506
-12.9596
-12.8508
-12.7205
-12.5681
-12.2897
-14.9723
-14.9715
-14.9712
-14.9706
-14.9694
-14.9671
-14.9633
-14.9583
-14.9508
-14.9408
-14.9281
-14.9115
-14.8898
-14.8615
-14.8251
-14.7783
-14.719
-14.6451
-14.5552
-14.4486
-14.319
-14.1619
-14.0065
-16.6016
-16.6016
-16.6013
-16.6006
-16.5987
-16.5952
-16.5911
-16.5847
-16.577
-16.5659
-16.5511
-16.5325
-16.5084
-16.4778
-16.4383
-16.3879
-16.3241
-16.2453
-16.1504
-16.036
-15.8922
-15.7241
-15.5335
-18.1542
-18.1539
-18.1543
-18.153
-18.1513
-18.1485
-18.144
-18.1383
-18.1298
-18.1188
-18.1046
-18.0862
-18.0623
-18.0318
-17.9922
-17.9431
-17.8819
-17.8061
-17.7159
-17.6094
-17.4823
-17.3487
-17.1768
-19.644
-19.6442
-19.6434
-19.6429
-19.6414
-19.6395
-19.6359
-19.6312
-19.6246
-19.6155
-19.6032
-19.5875
-19.5671
-19.5404
-19.5054
-19.4605
-19.4031
-19.3302
-19.2406
-19.1312
-18.9953
-18.8305
-18.6026
-21.2179
-21.2177
-21.2181
-21.217
-21.2153
-21.2127
-21.2092
-21.2039
-21.1971
-21.1878
-21.1756
-21.1598
-21.1386
-21.1117
-21.0768
-21.0321
-20.9753
-20.9036
-20.8163
-20.7118
-20.5825
-20.4282
-20.2483
-22.8013
-22.8024
-22.8009
-22.8003
-22.799
-22.7961
-22.7918
-22.7865
-22.7783
-22.7682
-22.7546
-22.7373
-22.7144
-22.6855
-22.6482
-22.6009
-22.5413
-22.4672
-22.3775
-22.2715
-22.1404
-21.9946
-21.8323
-24.3375
-24.3375
-24.3372
-24.3364
-24.3348
-24.332
-24.3284
-24.3228
-24.3158
-24.306
-24.2934
-24.2763
-24.2542
-24.226
-24.1893
-24.1429
-24.0841
-24.0104
-23.9201
-23.8128
-23.6814
-23.5385
-23.3428
-25.8878
-25.8857
-25.8876
-25.886
-25.8842
-25.8818
-25.8775
-25.8719
-25.8642
-25.8543
-25.8407
-25.8229
-25.8003
-25.7711
-25.7337
-25.6863
-25.6257
-25.5506
-25.4588
-25.3496
-25.2155
-25.06
-24.8379
-27.4122
-27.4131
-27.4118
-27.4109
-27.4094
-27.4072
-27.4026
-27.3971
-27.3894
-27.3795
-27.3661
-27.3488
-27.3262
-27.297
-27.2597
-27.2124
-27.1519
-27.0765
-26.9846
-26.877
-26.7439
-26.5919
-26.4133
-28.9255
-28.9246
-28.9253
-28.9238
-28.9224
-28.9195
-28.9156
-28.9097
-28.9017
-28.8913
-28.8774
-28.859
-28.8348
-28.8044
-28.7654
-28.7161
-28.6535
-28.5758
-28.4807
-28.37
-28.2317
-28.0786
-27.8884
-30.3848
-30.3849
-30.3841
-30.3834
-30.3822
-30.3794
-30.3754
-30.3703
-30.3626
-30.3533
-30.3405
-30.3239
-30.302
-30.2742
-30.2374
-30.1914
-30.1321
-30.0576
-29.9657
-29.8581
-29.7214
-29.563
-29.3387
-31.8451
-31.8461
-31.8452
-31.8448
-31.8434
-31.8413
-31.8377
-31.833
-31.827
-31.818
-31.8063
-31.7909
-31.7711
-31.7453
-31.7121
-31.6695
-31.614
-31.544
-31.4578
-31.3569
-31.2309
-31.0934
-30.9301
-33.369
-33.3689
-33.3681
-33.3679
-33.3659
-33.3625
-33.3596
-33.354
-33.3465
-33.3365
-33.3235
-33.3069
-33.2851
-33.2568
-33.22
-33.1732
-33.1119
-33.0353
-32.9421
-32.8316
-32.6929
-32.5386
-32.3249
-34.8671
-34.8673
-34.8674
-34.866
-34.864
-34.8619
-34.8574
-34.8518
-34.8439
-34.8338
-34.8203
-34.8025
-34.7795
-34.7498
-34.7116
-34.6636
-34.6014
-34.524
-34.4302
-34.3189
-34.1809
-34.0248
-33.811
-36.3432
-36.344
-36.3428
-36.3417
-36.341
-36.3376
-36.3344
-36.329
-36.3214
-36.311
-36.2976
-36.2803
-36.258
-36.2291
-36.1916
-36.1436
-36.0812
-36.0037
-35.9094
-35.7966
-35.6582
-35.5018
-35.3053
-37.833
-37.8314
-37.8329
-37.8312
-37.829
-37.8272
-37.8222
-37.8168
-37.809
-37.7986
-37.7852
-37.7673
-37.7438
-37.7135
-37.6741
-37.6235
-37.5587
-37.4787
-37.3813
-37.2654
-37.1225
-36.9596
-36.7438
-39.2999
-39.3007
-39.2994
-39.2987
-39.2969
-39.294
-39.2897
-39.2836
-39.2751
-39.2643
-39.2495
-39.2304
-39.2054
-39.1741
-39.1336
-39.0817
-39.0155
-38.9341
-38.8354
-38.7181
-38.5751
-38.4115
-38.2083
-40.7244
-40.7249
-40.7238
-40.7233
-40.7219
-40.7188
-40.7151
-40.7092
-40.7018
-40.6913
-40.6777
-40.6597
-40.6359
-40.6057
-40.5659
-40.5149
-40.4495
-40.3693
-40.2715
-40.1538
-40.0089
-39.8354
-39.6161
-42.1329
-42.1312
-42.1324
-42.1311
-42.1294
-42.1269
-42.1229
-42.1176
-42.1102
-42.1007
-42.0879
-42.071
-42.0489
-42.0205
-41.9833
-41.9364
-41.8756
-41.801
-41.71
-41.6009
-41.4699
-41.3172
-41.1374
-43.5575
-43.5581
-43.5574
-43.557
-43.5551
-43.5527
-43.5494
-43.5439
-43.5374
-43.5279
-43.5154
-43.4989
-43.4774
-43.4495
-43.4133
-43.3664
-43.3054
-43.2309
-43.1399
-43.0303
-42.8988
-42.741
-42.5452
-44.9821
-44.9814
-44.9816
-44.981
-44.979
-44.9765
-44.9724
-44.9671
-44.9594
-44.9496
-44.9364
-44.9189
-44.8963
-44.8669
-44.8296
-44.7819
-44.7208
-44.6463
-44.5557
-44.4472
-44.3187
-44.1678
-44.0006
-46.3938
-46.3943
-46.3939
-46.3931
-46.3913
-46.3882
-46.3846
-46.3783
-46.3712
-46.3609
-46.3473
-46.3293
-46.306
-46.2762
-46.2373
-46.1874
-46.1234
-46.0455
-45.9509
-45.8363
-45.6995
-45.5374
-45.3471
-47.7985
-47.7986
-47.7987
-47.7972
-47.7954
-47.7935
-47.7892
-47.7845
-47.777
-47.767
-47.7536
-47.7361
-47.7132
-47.6836
-47.6456
-47.5972
-47.5351
-47.4584
-47.3648
-47.2511
-47.1151
-46.9461
-46.7263
-49.209
-49.2096
-49.2083
-49.2077
-49.2064
-49.2031
-49.1989
-49.1931
-49.1846
-49.1739
-49.1599
-49.1412
-49.1174
-49.087
-49.0478
-48.9975
-48.9337
-48.8561
-48.7635
-48.6528
-48.5254
-48.3766
-48.2271
-50.5592
-50.558
-50.5591
-50.557
-50.5556
-50.5525
-50.5483
-50.5419
-50.5338
-50.5224
-50.5071
-50.4872
-50.4616
-50.4283
-50.386
-50.3323
-50.2649
-50.1825
-50.0838
-49.9646
-49.8236
-49.6578
-49.4753
-51.8441
-51.8448
-51.8436
-51.8434
-51.8415
-51.8389
-51.8344
-51.8291
-51.8204
-51.8095
-51.7952
-51.7765
-51.752
-51.7203
-51.6795
-51.6273
-51.5618
-51.481
-51.3835
-51.265
-51.1214
-50.9467
-50.7325
-53.1079
-53.1073
-53.1073
-53.1064
-53.105
-53.1021
-53.0986
-53.0932
-53.0859
-53.076
-53.0623
-53.0445
-53.0216
-52.9922
-52.9541
-52.9061
-52.8461
-52.7723
-52.6835
-52.5751
-52.4449
-52.2892
-52.101
-54.3966
-54.3977
-54.3965
-54.3964
-54.3938
-54.3917
-54.3877
-54.3817
-54.3741
-54.3631
-54.3493
-54.3318
-54.3089
-54.2796
-54.2418
-54.1945
-54.1364
-54.0651
-53.9793
-53.8753
-53.7531
-53.6127
-53.4525
-159.145
-159.144
-159.144
-159.143
-159.14
-159.136
-159.129
-159.12
-159.109
-159.093
-159.073
-159.046
-159.012
-158.968
-158.911
-158.839
-158.749
-158.637
-158.5
-158.339
-158.131
-157.865
-157.539
-160.224
-160.225
-160.223
-160.222
-160.219
-160.216
-160.21
-160.201
-160.19
-160.175
-160.156
-160.131
-160.099
-160.058
-160.005
-159.939
-159.857
-159.759
-159.646
-159.527
-159.391
-159.289
-159.268
-161.183
-161.183
-161.182
-161.181
-161.179
-161.174
-161.168
-161.159
-161.147
-161.131
-161.11
-161.082
-161.046
-160.999
-160.938
-160.859
-160.759
-160.633
-160.48
-160.293
-160.054
-159.841
-159.525
-162.185
-162.185
-162.184
-162.183
-162.18
-162.176
-162.17
-162.16
-162.148
-162.131
-162.109
-162.08
-162.042
-161.992
-161.928
-161.844
-161.737
-161.601
-161.433
-161.222
-160.959
-160.638
-160.129
-163.25
-163.25
-163.249
-163.247
-163.244
-163.24
-163.233
-163.223
-163.21
-163.193
-163.17
-163.139
-163.1
-163.049
-162.984
-162.899
-162.793
-162.658
-162.495
-162.295
-162.053
-161.761
-161.343
-164.278
-164.278
-164.278
-164.276
-164.274
-164.269
-164.262
-164.253
-164.24
-164.223
-164.2
-164.171
-164.133
-164.084
-164.021
-163.94
-163.839
-163.712
-163.56
-163.375
-163.161
-162.914
-162.645
-165.308
-165.308
-165.307
-165.306
-165.303
-165.299
-165.292
-165.282
-165.27
-165.253
-165.23
-165.2
-165.162
-165.112
-165.048
-164.967
-164.864
-164.735
-164.581
-164.393
-164.173
-163.901
-163.562
-166.253
-166.253
-166.253
-166.251
-166.248
-166.243
-166.236
-166.225
-166.212
-166.194
-166.169
-166.138
-166.097
-166.045
-165.979
-165.894
-165.789
-165.657
-165.503
-165.317
-165.111
-164.87
-164.637
-167.104
-167.104
-167.103
-167.102
-167.099
-167.095
-167.089
-167.079
-167.067
-167.05
-167.028
-166.998
-166.959
-166.908
-166.841
-166.754
-166.642
-166.499
-166.322
-166.099
-165.827
-165.468
-165.061
-168.12
-168.12
-168.119
-168.118
-168.115
-168.111
-168.104
-168.094
-168.08
-168.063
-168.039
-168.008
-167.967
-167.914
-167.847
-167.758
-167.646
-167.502
-167.326
-167.104
-166.836
-166.494
-166.093
-61.9467
-61.9461
-61.9467
-61.9454
-61.9434
-61.9407
-61.9365
-61.93
-61.922
-61.9109
-61.8961
-61.8775
-61.8529
-61.8211
-61.7805
-61.7292
-61.6651
-61.5857
-61.4898
-61.3742
-61.2371
-61.069
-60.8698
-63.1164
-63.1173
-63.1161
-63.1157
-63.114
-63.1116
-63.1075
-63.1022
-63.0946
-63.0846
-63.0712
-63.0537
-63.031
-63.0021
-62.9647
-62.9173
-62.8573
-62.7822
-62.691
-62.5818
-62.4516
-62.2977
-62.1342
-64.3045
-64.3044
-64.304
-64.303
-64.3024
-64.2996
-64.2964
-64.2916
-64.2843
-64.2751
-64.2627
-64.2465
-64.2247
-64.1965
-64.1602
-64.1143
-64.0552
-63.98
-63.8875
-63.7744
-63.6366
-63.4665
-63.2535
-65.544
-65.5435
-65.5434
-65.543
-65.5406
-65.5386
-65.5348
-65.5292
-65.522
-65.5124
-65.4994
-65.4821
-65.4595
-65.4309
-65.3937
-65.3465
-65.286
-65.2096
-65.1161
-65.0026
-64.8642
-64.6961
-64.4979
-66.8028
-66.8034
-66.8029
-66.8018
-66.8007
-66.7979
-66.7937
-66.7882
-66.7805
-66.7702
-66.7563
-66.7385
-66.7151
-66.6849
-66.6458
-66.5962
-66.5328
-66.453
-66.3554
-66.2382
-66.0962
-65.9287
-65.7295
-68.0691
-68.068
-68.0685
-68.0676
-68.0653
-68.0625
-68.0582
-68.0524
-68.044
-68.0328
-68.0181
-67.9986
-67.9738
-67.9425
-67.9022
-67.8516
-67.7868
-67.7062
-67.6072
-67.4892
-67.3456
-67.1681
-66.9308
-69.2975
-69.2982
-69.2974
-69.2968
-69.2953
-69.2929
-69.2895
-69.2836
-69.2765
-69.2666
-69.2536
-69.2362
-69.2134
-69.1845
-69.1467
-69.0986
-69.0365
-68.9593
-68.864
-68.7525
-68.6177
-68.4556
-68.2815
-70.5618
-70.5622
-70.5616
-70.5606
-70.5593
-70.5563
-70.5519
-70.5464
-70.5382
-70.5272
-70.5129
-70.494
-70.4698
-70.4389
-70.3989
-70.3482
-70.2828
-70.2019
-70.1016
-69.9838
-69.8372
-69.663
-69.4693
-71.803
-71.8022
-71.8024
-71.8011
-71.7996
-71.7965
-71.7923
-71.7866
-71.7784
-71.7675
-71.7528
-71.7339
-71.7092
-71.6776
-71.6365
-71.5842
-71.5169
-71.434
-71.3317
-71.2118
-71.0623
-70.8911
-70.6898
-73.0113
-73.0109
-73.0104
-73.0104
-73.0086
-73.0059
-73.0022
-72.9968
-72.9891
-72.9786
-72.9649
-72.947
-72.9234
-72.8935
-72.8547
-72.8047
-72.7397
-72.6586
-72.5573
-72.4371
-72.2864
-72.1121
-71.8845
-74.254
-74.2538
-74.2536
-74.2529
-74.2509
-74.248
-74.2439
-74.2384
-74.2309
-74.2203
-74.2072
-74.1895
-74.1666
-74.1373
-74.0994
-74.0508
-73.9875
-73.9093
-73.8117
-73.6962
-73.5526
-73.3825
-73.151
-75.4935
-75.4934
-75.4933
-75.4925
-75.491
-75.4883
-75.4847
-75.4791
-75.4718
-75.4621
-75.4487
-75.4315
-75.4092
-75.3805
-75.3433
-75.2952
-75.2328
-75.1561
-75.0604
-74.9483
-74.8109
-74.6548
-74.4757
-76.7704
-76.7708
-76.7696
-76.7691
-76.767
-76.7644
-76.7597
-76.7543
-76.7458
-76.7353
-76.7209
-76.702
-76.6778
-76.6464
-76.6056
-76.5534
-76.4858
-76.4034
-76.3003
-76.178
-76.024
-75.8436
-75.6159
-78.0329
-78.0317
-78.0323
-78.0313
-78.0295
-78.0268
-78.0227
-78.0164
-78.0085
-77.9976
-77.9831
-77.9648
-77.9412
-77.9109
-77.8713
-77.8201
-77.7541
-77.6725
-77.5705
-77.4507
-77.2989
-77.1183
-76.8855
-79.3091
-79.3096
-79.3091
-79.3077
-79.3062
-79.3028
-79.2983
-79.2921
-79.2836
-79.2719
-79.2569
-79.2371
-79.2116
-79.179
-79.1369
-79.0839
-79.0165
-78.935
-78.8354
-78.7197
-78.5779
-78.424
-78.2521
-80.5165
-80.5169
-80.5163
-80.5155
-80.5134
-80.5107
-80.5067
-80.5009
-80.4928
-80.4821
-80.468
-80.4496
-80.4265
-80.3962
-80.3562
-80.3048
-80.2389
-80.1577
-80.0569
-79.9369
-79.7862
-79.6172
-79.3929
-81.7867
-81.7861
-81.7855
-81.7849
-81.783
-81.7799
-81.775
-81.7685
-81.7595
-81.7475
-81.7317
-81.7113
-81.6846
-81.6509
-81.6075
-81.5522
-81.4822
-81.3973
-81.2936
-81.1713
-81.0209
-80.8501
-80.6248
-82.9623
-82.9627
-82.9622
-82.9613
-82.9591
-82.9561
-82.9518
-82.9456
-82.9372
-82.9257
-82.9106
-82.8913
-82.8658
-82.8334
-82.7912
-82.7376
-82.6698
-82.5869
-82.4851
-82.3653
-82.2184
-82.0515
-81.8481
-84.1249
-84.125
-84.1248
-84.1235
-84.122
-84.1192
-84.115
-84.1091
-84.1009
-84.09
-84.0761
-84.0578
-84.0338
-84.0032
-83.9634
-83.9121
-83.8465
-83.7656
-83.6655
-83.546
-83.397
-83.2231
-82.9978
-85.3146
-85.314
-85.314
-85.3131
-85.3116
-85.3088
-85.3047
-85.299
-85.2912
-85.2806
-85.267
-85.2487
-85.2251
-85.1945
-85.155
-85.1046
-85.0401
-84.9602
-84.8614
-84.7439
-84.5986
-84.4318
-84.2223
-86.5162
-86.5157
-86.5158
-86.5151
-86.513
-86.5103
-86.5063
-86.5007
-86.4923
-86.4818
-86.4675
-86.4494
-86.4253
-86.3943
-86.3542
-86.3025
-86.2362
-86.1545
-86.0532
-85.9319
-85.781
-85.6077
-85.3939
-87.7355
-87.736
-87.7351
-87.7341
-87.7319
-87.7288
-87.7244
-87.7181
-87.7092
-87.6979
-87.6829
-87.663
-87.6372
-87.604
-87.5615
-87.5068
-87.4372
-87.3519
-87.2469
-87.1217
-86.9671
-86.789
-86.5519
-88.9167
-88.9167
-88.9168
-88.9156
-88.9138
-88.911
-88.9069
-88.9007
-88.8924
-88.8812
-88.8665
-88.8471
-88.8216
-88.7889
-88.7469
-88.693
-88.6241
-88.5387
-88.4326
-88.3064
-88.1513
-87.9708
-87.7394
-90.1574
-90.1569
-90.1569
-90.1554
-90.1539
-90.1504
-90.1465
-90.1407
-90.132
-90.1208
-90.1062
-90.0868
-90.0615
-90.0289
-89.9866
-89.9319
-89.8618
-89.7742
-89.665
-89.5337
-89.3668
-89.1597
-88.9028
-91.4122
-91.4127
-91.4121
-91.4114
-91.4087
-91.4062
-91.4012
-91.3943
-91.3853
-91.3733
-91.3575
-91.3375
-91.3114
-91.278
-91.2352
-91.1814
-91.1133
-91.0299
-90.9291
-90.8115
-90.663
-90.4878
-90.285
-92.6085
-92.6087
-92.608
-92.6069
-92.6052
-92.6014
-92.5962
-92.5892
-92.5796
-92.5667
-92.5494
-92.5268
-92.4977
-92.4605
-92.4132
-92.3538
-92.2791
-92.1886
-92.0808
-91.9568
-91.8103
-91.6843
-91.6085
-93.7446
-93.7444
-93.7437
-93.7433
-93.7412
-93.7385
-93.7342
-93.7278
-93.7194
-93.7082
-93.6935
-93.6742
-93.6486
-93.6153
-93.5718
-93.5155
-93.4421
-93.3473
-93.2266
-93.0733
-92.8662
-92.5986
-92.1171
-94.9957
-94.9957
-94.9953
-94.9939
-94.9919
-94.9887
-94.9843
-94.9776
-94.9689
-94.9572
-94.9415
-94.9212
-94.8954
-94.8626
-94.8208
-94.7692
-94.705
-94.6276
-94.5377
-94.436
-94.3212
-94.2097
-94.0657
-96.0861
-96.0864
-96.0858
-96.0855
-96.0838
-96.081
-96.0771
-96.0712
-96.0633
-96.053
-96.0392
-96.0212
-95.998
-95.9677
-95.9283
-95.8781
-95.8139
-95.7326
-95.6334
-95.5141
-95.3685
-95.2158
-95.0361
-97.3147
-97.314
-97.3143
-97.3126
-97.3104
-97.3078
-97.3027
-97.2966
-97.2878
-97.276
-97.2607
-97.2408
-97.2149
-97.1817
-97.1386
-97.0836
-97.0138
-96.9261
-96.8182
-96.6863
-96.5203
-96.3124
-96.0274
-98.4913
-98.4913
-98.491
-98.4901
-98.4885
-98.4849
-98.4809
-98.4741
-98.4651
-98.4536
-98.4386
-98.4185
-98.3927
-98.3604
-98.3191
-98.2666
-98.2005
-98.1191
-98.0209
-97.9048
-97.7668
-97.6128
-97.4276
-99.6266
-99.6267
-99.626
-99.6251
-99.6232
-99.6205
-99.6157
-99.6098
-99.6015
-99.5906
-99.5763
-99.5574
-99.5325
-99.5007
-99.4597
-99.4074
-99.341
-99.2588
-99.1587
-99.0397
-98.8986
-98.7354
-98.5326
-100.768
-100.768
-100.768
-100.767
-100.765
-100.761
-100.757
-100.75
-100.742
-100.73
-100.715
-100.694
-100.668
-100.635
-100.592
-100.537
-100.467
-100.38
-100.274
-100.147
-99.9927
-99.8081
-99.5924
-101.902
-101.903
-101.902
-101.901
-101.899
-101.896
-101.892
-101.886
-101.877
-101.866
-101.851
-101.831
-101.805
-101.771
-101.728
-101.671
-101.599
-101.509
-101.397
-101.262
-101.096
-100.893
-100.636
-103.087
-103.087
-103.086
-103.085
-103.082
-103.079
-103.074
-103.066
-103.056
-103.043
-103.025
-103.003
-102.973
-102.935
-102.886
-102.824
-102.746
-102.65
-102.533
-102.394
-102.226
-102.03
-101.81
-104.152
-104.152
-104.151
-104.151
-104.148
-104.146
-104.141
-104.134
-104.126
-104.114
-104.099
-104.078
-104.051
-104.017
-103.973
-103.916
-103.845
-103.755
-103.646
-103.513
-103.348
-103.148
-102.882
-105.238
-105.238
-105.238
-105.236
-105.235
-105.233
-105.228
-105.223
-105.215
-105.205
-105.191
-105.173
-105.149
-105.118
-105.078
-105.025
-104.959
-104.875
-104.773
-104.651
-104.506
-104.342
-104.163
-106.384
-106.383
-106.384
-106.382
-106.381
-106.377
-106.373
-106.367
-106.358
-106.346
-106.33
-106.31
-106.283
-106.249
-106.204
-106.147
-106.074
-105.983
-105.871
-105.736
-105.567
-105.363
-105.112
-107.515
-107.515
-107.513
-107.513
-107.511
-107.508
-107.503
-107.497
-107.488
-107.476
-107.46
-107.439
-107.412
-107.378
-107.333
-107.275
-107.202
-107.112
-107.001
-106.867
-106.702
-106.51
-106.273
-108.639
-108.638
-108.639
-108.637
-108.636
-108.632
-108.628
-108.622
-108.613
-108.602
-108.586
-108.566
-108.54
-108.505
-108.461
-108.404
-108.331
-108.239
-108.126
-107.989
-107.818
-107.622
-107.384
-109.818
-109.818
-109.818
-109.817
-109.815
-109.811
-109.806
-109.799
-109.79
-109.777
-109.76
-109.738
-109.709
-109.672
-109.624
-109.564
-109.487
-109.391
-109.276
-109.135
-108.963
-108.767
-108.502
-110.922
-110.922
-110.921
-110.92
-110.918
-110.915
-110.911
-110.904
-110.896
-110.884
-110.868
-110.848
-110.821
-110.787
-110.742
-110.685
-110.611
-110.52
-110.409
-110.274
-110.111
-109.923
-109.664
-112.074
-112.074
-112.073