/*--------------------------------*- C++ -*----------------------------------*\
  =========                 |
  \\      /  F ield         | OpenFOAM: The Open Source CFD Toolbox
   \\    /   O peration     | Website:  https://openfoam.org
    \\  /    A nd           | Version:  10
     \\/     M anipulation  |
\*---------------------------------------------------------------------------*/
FoamFile
{
    format      ascii;
    class       surfaceScalarField;
    location    "100";
    object      phi;
}
// * * * * * * * * * * * * * * * * * * * * * * * * * * * * * * * * * * * * * //

dimensions      [0 3 -1 0 0 0 0];

internalField   nonuniform List<scalar> 
154254
(
2.29058e-08
1.69802e-05
-1.70005e-05
9.64389e-07
6.53746e-05
-6.63025e-05
2.13191e-06
0.000140935
-0.000142101
2.97219e-06
0.000238957
-0.000239785
6.33561e-06
0.000351715
-0.00035508
7.81947e-06
0.00048613
-0.000487608
1.12475e-05
0.000645438
-0.000648865
1.54555e-05
0.000840302
-0.00084451
2.07304e-05
0.00107663
-0.0010819
2.70298e-05
0.00137028
-0.00137658
3.49591e-05
0.00173129
-0.00173921
4.45344e-05
0.00217538
-0.00218496
5.6364e-05
0.00272257
-0.00273437
7.06871e-05
0.00340346
-0.00341778
8.52259e-05
0.00423946
-0.00425399
0.000107106
0.00525563
-0.00527749
0.000130226
0.00646867
-0.00649179
0.000154606
0.0078714
-0.00789576
0.000188166
0.00948114
-0.0095147
0.00022371
0.0113876
-0.0114231
0.00027082
0.0136679
-0.013715
0.00032711
0.0164036
-0.0164599
0.019692
-0.0197631
0.000398226
1.47853e-07
-2.36898e-05
2.35809e-05
3.47092e-07
-9.07369e-05
9.05351e-05
6.54438e-07
-0.000189714
0.000189447
1.01503e-06
-0.000311447
0.000311065
1.11525e-06
-0.000446603
0.000446526
2.88048e-06
-0.000607357
0.000605562
3.57588e-06
-0.000797279
0.000796594
4.8222e-06
-0.00102875
0.00102747
3.59114e-06
-0.00131201
0.00131324
4.47838e-06
-0.00166096
0.00166004
5.52399e-06
-0.00209308
0.00209203
6.78388e-06
-0.00262218
0.00262089
8.38499e-06
-0.00327705
0.00327542
1.23289e-05
-0.00408789
0.00408393
1.2736e-05
-0.00508312
0.00508266
1.65684e-05
-0.00629648
0.00629263
1.80213e-05
-0.00773823
0.0077367
2.04817e-05
-0.00942443
0.00942196
2.39928e-05
-0.0113971
0.0113935
3.02653e-05
-0.0137437
0.0137374
3.3864e-05
-0.0165357
0.0165321
4.25802e-05
-0.0198388
0.0198301
-0.0236213
0.0236095
5.43848e-05
-1.95651e-07
-2.3745e-05
-2.62287e-07
-9.0914e-05
-1.90867e-07
-0.000190019
8.57889e-08
-0.000311853
8.12747e-07
-0.000447453
8.68166e-07
-0.000607475
1.38033e-06
-0.000797866
1.97791e-06
-0.00102939
2.62348e-06
-0.0013127
5.01412e-06
-0.00166338
4.24701e-06
-0.00209234
5.39242e-06
-0.00262335
8.7378e-06
-0.0032804
8.08672e-06
-0.00408723
1.02748e-05
-0.0050853
1.2565e-05
-0.00629868
1.67038e-05
-0.00774236
1.64188e-05
-0.00942407
2.19748e-05
-0.0114027
2.50148e-05
-0.0137467
3.10484e-05
-0.0165417
3.13231e-05
-0.019839
-0.0236206
3.0644e-05
-2.73429e-07
-1.54717e-05
1.73234e-05
-4.76552e-06
-5.94554e-05
6.5742e-05
-1.38924e-05
-0.000128514
0.000139125
-2.53341e-05
-0.00021964
0.000232198
-3.82226e-05
-0.00032583
0.000339426
-5.2811e-05
-0.00044847
0.000463621
-6.47019e-05
-0.000599214
0.000611441
-7.64043e-05
-0.000779581
0.000791595
-8.77688e-05
-0.0010006
0.00101215
-9.27475e-05
-0.00127802
0.00128318
-9.60469e-05
-0.00161547
0.00161885
-9.61844e-05
-0.00203355
0.00203376
-8.5778e-05
-0.00255278
0.00254238
-6.75134e-05
-0.00319315
0.00317491
-3.81498e-05
-0.00398194
0.00395255
1.58768e-05
-0.00495585
0.00490183
8.29258e-05
-0.00612328
0.00605618
0.000172684
-0.00747519
0.0073855
0.000282205
-0.00902064
0.00891111
0.000419127
-0.010836
0.0106991
0.000574843
-0.0130008
0.0128452
0.000756853
-0.0156063
0.0154244
-0.0187378
0.0185316
0.000963212
2.16573e-05
-1.10404e-05
-1.03258e-05
5.72548e-05
-1.85403e-05
-1.74704e-05
0.000128397
-3.59797e-05
-3.42182e-05
0.00025377
-6.44779e-05
-6.19719e-05
0.000420521
-8.39082e-05
-8.15148e-05
0.000656171
-0.000119769
-0.000117241
0.000970556
-0.000157586
-0.000155315
0.00134948
-0.000191091
-0.000189179
0.00184798
-0.000249526
-0.000247353
0.00240915
-0.000282155
-0.000280266
0.00307723
-0.000334407
-0.000332275
0.00388988
-0.000408196
-0.000405512
0.00483514
-0.000473727
-0.000470297
0.00589184
-0.000530923
-0.000526477
0.00713576
-0.000624689
-0.000618423
0.00852532
-0.000699279
-0.000690598
0.0100554
-0.000770592
-0.000759178
0.0117036
-0.000831023
-0.000817191
0.0134678
-0.000890908
-0.000873487
0.01533
-0.000943147
-0.000918696
0.0172838
-0.000993686
-0.000960338
0.0193563
-0.00105464
-0.0010174
-0.00110609
-0.00103375
0.021497
2.63291e-07
1.51225e-05
-1.53263e-05
1.13405e-06
5.858e-05
-5.93195e-05
2.70638e-06
0.000127311
-0.000128845
5.32678e-06
0.000218582
-0.000221087
9.84875e-06
0.000324305
-0.000328831
1.45604e-05
0.000450542
-0.000455163
2.05259e-05
0.000600684
-0.000606676
2.79372e-05
0.000784743
-0.000792078
3.53402e-05
0.00101018
-0.00101761
4.83321e-05
0.00128714
-0.00130007
6.18496e-05
0.00163006
-0.00164361
7.68567e-05
0.0020539
-0.00206885
9.91293e-05
0.00257444
-0.00259677
0.000122559
0.00322256
-0.00324595
0.000154385
0.00401805
-0.00404993
0.000191325
0.00499794
-0.00503481
0.000239364
0.00617072
-0.0062188
0.000290167
0.00753554
-0.00758627
0.000352567
0.00909133
-0.00915375
0.000428374
0.0109214
-0.0109972
0.000520625
0.0131074
-0.0131996
0.000632191
0.0157372
-0.0158488
0.0188901
-0.0190261
0.000768155
-3.93937e-07
-1.35025e-06
-2.5847e-06
-3.71383e-06
-5.24312e-06
-3.23072e-06
-1.74267e-06
3.36431e-06
1.29805e-05
2.2037e-05
3.66848e-05
5.69753e-05
7.86997e-05
0.000108079
0.000144223
0.000186337
0.000233782
0.00029422
0.000364905
0.000450446
0.000557034
0.000688
0.000840302
2.01015e-07
1.64806e-05
-1.66735e-05
9.0192e-07
6.34978e-05
-6.41921e-05
2.27767e-06
0.000137217
-0.000138582
4.27215e-06
0.0002335
-0.00023549
5.83057e-06
0.000345561
-0.000347112
1.0488e-05
0.000475455
-0.000480109
1.4699e-05
0.000633708
-0.000637913
2.00023e-05
0.00082574
-0.000831038
2.46689e-05
0.00106067
-0.00106533
3.23698e-05
0.0013488
-0.00135649
4.38658e-05
0.00170291
-0.0017144
5.53289e-05
0.00214305
-0.0021545
6.74695e-05
0.002687
-0.00269914
8.46427e-05
0.00335559
-0.00337276
0.000107277
0.00418021
-0.00420285
0.000129154
0.00519086
-0.00521273
0.000156741
0.00639401
-0.00642161
0.000187997
0.00778422
-0.00781547
0.000224285
0.00938175
-0.00941805
0.000267039
0.0112669
-0.0113096
0.000316007
0.0135261
-0.0135751
0.000373564
0.0162375
-0.016295
0.0194942
-0.0195621
0.000441357
1.92317e-07
1.62864e-05
9.31373e-07
6.27865e-05
2.37939e-06
0.000135748
4.47326e-06
0.000231442
7.3357e-06
0.000342668
1.09927e-05
0.000471838
1.40464e-05
0.000630619
2.12236e-05
0.000818606
2.81629e-05
0.00105369
3.6668e-05
0.00134034
4.48918e-05
0.00169465
5.73359e-05
0.00213064
7.44457e-05
0.00266987
9.28072e-05
0.00333726
0.000112755
0.00416026
0.000138528
0.00516513
0.000168073
0.0063645
0.000201584
0.00775074
0.000240248
0.00934312
0.000284356
0.0112228
0.000340122
0.0134704
0.00040745
0.0161701
0.0194122
0.000489512
2.40013e-07
1.60753e-05
1.05486e-06
6.19985e-05
2.64411e-06
0.000134194
5.04927e-06
0.000229051
8.16654e-06
0.000339574
1.21409e-05
0.000467871
1.72676e-05
0.000625512
2.34454e-05
0.000812434
3.11431e-05
0.00104601
4.03318e-05
0.00133115
5.16125e-05
0.00168338
6.52255e-05
0.002117
8.17749e-05
0.00265334
9.96944e-05
0.00331929
0.000126084
0.00413388
0.000154288
0.00513686
0.000184215
0.00633455
0.000220433
0.00771453
0.000259918
0.00930362
0.000309053
0.0111737
0.000367399
0.013412
0.000436099
0.0161014
0.0193342
0.000514059
2.54097e-07
1.58294e-05
1.10228e-06
6.11404e-05
2.80727e-06
0.000132507
5.37775e-06
0.000226467
8.70913e-06
0.000336265
1.3112e-05
0.000463455
2.00016e-05
0.000618645
2.53011e-05
0.000807125
3.35511e-05
0.00103778
4.35506e-05
0.00132115
5.58266e-05
0.00167113
7.06396e-05
0.0021022
8.64319e-05
0.00263755
0.000110394
0.00329534
0.000134403
0.00410986
0.000165408
0.00510589
0.000202709
0.00629723
0.00023995
0.00767734
0.000285298
0.00925825
0.000339099
0.0111199
0.000403554
0.0133476
0.000478685
0.0160263
0.0192408
0.000572114
2.75515e-07
1.55789e-05
1.27012e-06
6.02119e-05
3.06577e-06
0.000130722
5.7354e-06
0.00022386
1.05054e-05
0.000331486
1.39036e-05
0.000460112
1.97937e-05
0.000612737
2.7063e-05
0.000799907
3.59256e-05
0.0010289
4.70478e-05
0.00131007
6.01478e-05
0.00165802
7.60691e-05
0.00208632
9.56224e-05
0.00261799
0.000119238
0.00327176
0.000147765
0.00408134
0.000181763
0.00507195
0.000218005
0.00626098
0.000261713
0.0076337
0.000311514
0.00920845
0.000371387
0.0110601
0.000440862
0.0132781
0.000526972
0.0159402
0.0191373
0.000630481
2.62047e-07
1.16077e-06
3.05134e-06
5.8302e-06
8.49387e-06
1.34495e-05
1.95198e-05
2.73559e-05
3.8656e-05
4.8664e-05
6.30786e-05
8.05297e-05
0.000101756
0.000127538
0.000158929
0.000196033
0.000238182
0.000285658
0.000340318
0.00040329
0.00048174
0.000573166
0.000684344
2.16151e-07
-1.686e-05
8.88219e-07
-6.48303e-05
2.16745e-06
-0.000139828
3.14022e-06
-0.000236438
6.58372e-06
-0.000350536
9.77694e-06
-0.000483286
1.36623e-05
-0.000641785
1.69898e-05
-0.000834354
2.44831e-05
-0.00107281
3.17228e-05
-0.00136372
3.85745e-05
-0.00172124
4.94082e-05
-0.00216533
6.27912e-05
-0.00271251
7.87841e-05
-0.00338875
9.78246e-05
-0.00422189
0.000120237
-0.00523513
0.000145942
-0.00644733
0.000172974
-0.00784249
0.000207072
-0.00945217
0.000247949
-0.0113505
0.000297206
-0.0136244
0.000357069
-0.0163549
-0.0196374
0.000432443
-1.92248e-05
3.51989e-05
-5.09431e-05
9.57787e-05
-6.98531e-05
0.000156786
-8.79975e-05
0.000249166
-0.000123822
0.00037469
-0.000155436
0.000494513
-0.000182008
0.000637794
-0.000204674
0.00081379
-0.000223072
0.00103053
-0.000237287
0.00129709
-0.00026765
0.00164929
-0.000285794
0.00205174
-0.000290193
0.00254693
-0.000296038
0.00318073
-0.000287695
0.00394438
-0.000214279
0.00482854
-9.30268e-05
0.00593508
3.69832e-05
0.00725571
0.000224675
0.0087236
0.000426487
0.0104976
0.000672796
0.012599
0.000915008
0.0151824
0.018284
0.00116277
1.3606e-07
7.01816e-07
1.82712e-06
4.3614e-06
5.55041e-06
8.40464e-06
1.20678e-05
1.80221e-05
2.18548e-05
2.8418e-05
3.84835e-05
4.85346e-05
5.85963e-05
7.33147e-05
9.08758e-05
0.000111397
0.000132716
0.000161669
0.000190611
0.00022774
0.000271253
0.000320007
0.000374575
6.88714e-08
1.80273e-05
-1.80926e-05
3.32137e-07
6.9636e-05
-6.99101e-05
9.32941e-07
0.000149553
-0.000150147
2.9082e-06
0.000250745
-0.000252731
2.98375e-06
0.000369607
-0.000369675
4.3943e-06
0.000506069
-0.000507488
6.42034e-06
0.000671869
-0.00067389
8.79346e-06
0.000871344
-0.000873723
1.18555e-05
0.00111862
-0.00112168
1.55996e-05
0.00141826
-0.001422
2.00301e-05
0.00179022
-0.00179465
2.36033e-05
0.00224965
-0.00225322
3.23247e-05
0.00281246
-0.00282118
3.90894e-05
0.0035096
-0.00351636
5.01577e-05
0.00436531
-0.00437637
6.14822e-05
0.00540761
-0.00541894
7.43153e-05
0.00664599
-0.00665882
8.81302e-05
0.00806983
-0.00808366
0.000102989
0.0097197
-0.00973454
0.000123851
0.0116686
-0.0116895
0.000151034
0.0140087
-0.0140358
0.000181632
0.0168137
-0.0168443
0.0201924
-0.0202313
0.000220554
3.19386e-07
-1.73112e-05
5.44915e-07
-6.65139e-05
1.71573e-06
-0.000143259
3.28947e-06
-0.000241349
5.34244e-06
-0.000357126
9.2517e-06
-0.000491514
1.25727e-05
-0.000652175
1.48864e-05
-0.000846826
2.13501e-05
-0.00108835
2.57144e-05
-0.00138096
3.28441e-05
-0.00174632
4.20145e-05
-0.00219414
5.2989e-05
-0.00274533
6.60835e-05
-0.00343088
8.15401e-05
-0.00426942
9.75806e-05
-0.00529354
0.000119
-0.0065132
0.000145666
-0.00792242
0.000171986
-0.00954103
0.000205906
-0.011457
0.000243659
-0.0137527
0.000293211
-0.0165094
-0.0198245
0.000354623
1.50072e-07
-1.74628e-05
6.89647e-07
-6.70569e-05
1.59339e-06
-0.000144162
3.05324e-06
-0.000242813
4.88058e-06
-0.000358951
7.30849e-06
-0.000493948
1.02159e-05
-0.000655077
1.37777e-05
-0.000850397
1.66348e-05
-0.0010912
2.38506e-05
-0.00138819
3.07304e-05
-0.00175319
3.71166e-05
-0.00220054
4.92735e-05
-0.00275746
6.13315e-05
-0.00344296
7.56481e-05
-0.0042837
9.2676e-05
-0.00531058
0.000112678
-0.00653317
0.000133251
-0.007943
0.000157411
-0.00956517
0.000190237
-0.0114898
0.000227316
-0.0137898
0.000271346
-0.0165534
-0.0198767
0.000323559
1.41719e-07
-1.75942e-05
6.10357e-07
-6.75143e-05
1.53597e-06
-0.000145073
2.88716e-06
-0.000244158
4.6655e-06
-0.00036072
6.88099e-06
-0.000496164
8.16634e-06
-0.00065635
1.33843e-05
-0.00085562
1.74998e-05
-0.0010953
2.28514e-05
-0.00139355
2.75418e-05
-0.00175786
3.72674e-05
-0.00221028
4.68427e-05
-0.00276702
5.61209e-05
-0.00345225
6.98526e-05
-0.00429741
8.59366e-05
-0.00532669
0.00010506
-0.00655227
0.000126629
-0.00796458
0.000152249
-0.00959078
0.000182802
-0.0115204
0.00022101
-0.013828
0.000262607
-0.016595
-0.0199316
0.000317478
9.82458e-08
-1.76881e-05
5.37796e-07
-6.79514e-05
1.48826e-06
-0.000146016
2.82378e-06
-0.000245493
4.56076e-06
-0.000362449
5.37266e-06
-0.000496977
9.60514e-06
-0.000660573
1.27915e-05
-0.000858809
1.7152e-05
-0.00109965
2.21766e-05
-0.00139858
2.84428e-05
-0.00176412
3.58482e-05
-0.00221769
4.28976e-05
-0.00277405
5.58671e-05
-0.00346523
6.66221e-05
-0.00430815
8.22028e-05
-0.00534227
0.000100264
-0.00657031
0.000121085
-0.0079854
0.000145411
-0.00961509
0.000174766
-0.0115497
0.000207
-0.0138602
0.000250532
-0.0166385
-0.0199816
0.000300564
-3.61502e-09
-1.76724e-05
7.92294e-07
-6.8735e-05
9.51913e-07
-0.000146159
3.13728e-06
-0.000247672
3.65197e-06
-0.000362952
6.93947e-06
-0.000500263
9.42589e-06
-0.000663048
1.10172e-05
-0.000860401
1.63574e-05
-0.00110498
1.93196e-05
-0.00140154
2.69868e-05
-0.00177177
3.19902e-05
-0.0022227
4.24404e-05
-0.00278448
5.04035e-05
-0.0034732
6.48976e-05
-0.00432263
7.71486e-05
-0.00535452
9.4393e-05
-0.00658754
0.00011119
-0.00800219
0.000136433
-0.00964032
0.000160473
-0.0115738
0.00019217
-0.0138919
0.000229928
-0.0166763
-0.0200299
0.000278172
2.41986e-07
-1.79085e-05
2.99096e-07
-6.87975e-05
1.72298e-06
-0.00014757
2.81791e-06
-0.000248775
4.24048e-06
-0.000364362
6.03202e-06
-0.000502065
6.95159e-06
-0.000663953
1.13181e-05
-0.000864779
1.32288e-05
-0.00110687
1.92491e-05
-0.00140758
2.27208e-05
-0.00177522
2.91557e-05
-0.00222915
3.69816e-05
-0.00279229
4.63876e-05
-0.00348262
5.78084e-05
-0.00433402
7.16872e-05
-0.00536842
8.77408e-05
-0.00660358
0.000106313
-0.00802076
0.000123683
-0.00965769
0.000148348
-0.0115984
0.000181349
-0.0139249
0.000213616
-0.0167086
-0.0200669
0.000250606
1.36246e-07
-1.8034e-05
4.644e-07
-6.91287e-05
4.71622e-07
-0.000147558
1.42543e-06
-0.000249737
2.85425e-06
-0.000365772
4.66461e-06
-0.000503886
8.2237e-06
-0.000667493
9.48755e-06
-0.000866055
1.28805e-05
-0.00111024
1.71563e-05
-0.00141187
2.22426e-05
-0.00178029
3.0523e-05
-0.00223744
3.59946e-05
-0.00279774
4.5387e-05
-0.00349202
5.6591e-05
-0.00434522
7.00798e-05
-0.00538191
8.40011e-05
-0.00661749
0.000103289
-0.00804004
0.000121229
-0.00967562
0.000147578
-0.0116248
0.000173305
-0.0139506
0.000213654
-0.0167489
-0.020113
0.00025984
4.94611e-08
-1.80894e-05
3.34769e-07
-6.94294e-05
1.64942e-06
-0.000148876
1.71745e-06
-0.000249818
4.12889e-06
-0.000368183
4.52484e-06
-0.00050429
6.81496e-06
-0.000669782
9.51286e-06
-0.000868758
1.46805e-05
-0.00111541
1.6999e-05
-0.00141419
2.19951e-05
-0.00178529
2.82326e-05
-0.00224368
3.59219e-05
-0.00280542
4.48225e-05
-0.00350092
5.36075e-05
-0.00435399
6.92038e-05
-0.00539752
8.36994e-05
-0.00663197
9.78123e-05
-0.00805417
0.000121445
-0.00969923
0.00014262
-0.0116459
0.000172972
-0.013981
0.000204976
-0.0167809
-0.0201574
0.000249296
-5.76986e-08
1.46087e-07
8.29827e-07
1.75381e-06
3.18562e-06
4.9625e-06
7.05448e-06
9.63968e-06
1.28483e-05
1.69195e-05
2.18564e-05
2.78316e-05
3.48608e-05
4.35458e-05
5.48608e-05
6.49562e-05
7.89812e-05
9.46153e-05
0.0001151
0.000137729
0.000165421
0.000198118
0.000233205
1.58108e-07
-1.94843e-05
1.93573e-05
3.13512e-07
-7.48108e-05
7.46865e-05
-6.56065e-08
-0.000159171
0.000159585
1.32277e-06
-0.000266722
0.000265353
1.92811e-06
-0.000388461
0.000387878
2.67629e-06
-0.000531082
0.000530344
2.15543e-06
-0.000700841
0.000701378
4.83976e-06
-0.000911059
0.000908382
4.60149e-06
-0.00116228
0.00116254
8.04659e-06
-0.00147613
0.00147269
9.79956e-06
-0.00186064
0.0018589
1.0794e-05
-0.00233013
0.00232914
1.39787e-05
-0.00291437
0.00291121
1.80035e-05
-0.00363097
0.00362695
2.31023e-05
-0.00451177
0.00450668
2.94755e-05
-0.00558239
0.00557603
3.9386e-05
-0.00685396
0.00684406
4.94529e-05
-0.0083192
0.00830914
6.3531e-05
-0.0100233
0.0100092
7.84528e-05
-0.0120431
0.0120282
9.44419e-05
-0.0144596
0.0144436
0.000114533
-0.0173589
0.0173388
-0.0208253
0.0207956
0.000144276
8.39125e-08
-1.95487e-05
3.02226e-07
-7.50142e-05
1.3365e-06
-0.000160183
8.31061e-07
-0.000266208
1.38928e-06
-0.000389003
2.08974e-06
-0.000531777
2.98595e-06
-0.000701721
4.07794e-06
-0.000912147
7.08596e-06
-0.00116527
8.43329e-06
-0.00147747
8.96395e-06
-0.00186115
1.30044e-05
-0.00233416
1.61353e-05
-0.00291749
2.01101e-05
-0.00363492
2.51193e-05
-0.00451677
3.14094e-05
-0.00558865
3.75359e-05
-0.00686007
4.92269e-05
-0.00833088
5.88494e-05
-0.0100329
7.33423e-05
-0.0120576
9.29866e-05
-0.0144792
0.000114794
-0.0173807
-0.0208514
0.000140914
1.13048e-07
-1.81984e-05
5.19007e-07
-7.0306e-05
1.18633e-06
-0.000150812
2.11851e-06
-0.000253654
3.27985e-06
-0.000370839
4.84294e-06
-0.000509042
6.53489e-06
-0.00067559
8.91891e-06
-0.000876098
1.01106e-05
-0.00112288
1.51646e-05
-0.00142705
1.94759e-05
-0.00179897
2.51767e-05
-0.0022589
2.91289e-05
-0.00282514
3.83949e-05
-0.0035256
4.5133e-05
-0.00438311
5.56671e-05
-0.00542946
6.93383e-05
-0.00667249
8.26929e-05
-0.00809701
9.86841e-05
-0.00975051
0.000119834
-0.0117107
0.000138864
-0.0140549
0.000167908
-0.0168733
-0.0202594
0.000195966
2.57997e-07
-1.84481e-05
6.67613e-07
-7.07217e-05
1.38855e-06
-0.000151516
1.32061e-06
-0.000253597
3.73531e-06
-0.000373237
5.21026e-06
-0.00051053
7.20544e-06
-0.000677568
9.4822e-06
-0.000878389
1.22877e-05
-0.00112566
1.53946e-05
-0.00143017
1.97126e-05
-0.00180327
2.48999e-05
-0.00226411
3.10198e-05
-0.00283124
3.62262e-05
-0.00353083
4.71754e-05
-0.00439405
5.68583e-05
-0.00543916
6.83878e-05
-0.00668401
8.14448e-05
-0.0081101
9.72108e-05
-0.00976628
0.000116493
-0.01173
0.00014205
-0.0140804
0.000171208
-0.0169025
-0.0202929
0.000204749
8.60383e-08
-1.85253e-05
4.06278e-07
-7.10421e-05
1.10267e-06
-0.000152197
2.21612e-06
-0.000254716
1.93991e-06
-0.000372946
4.19329e-06
-0.000512792
6.9343e-06
-0.000680292
8.43077e-06
-0.000879895
1.14357e-05
-0.00112865
1.2949e-05
-0.00143169
1.84432e-05
-0.00180874
2.17935e-05
-0.00226748
2.92902e-05
-0.00283872
3.84736e-05
-0.00354003
4.46559e-05
-0.00440021
5.42983e-05
-0.00544882
6.51522e-05
-0.00669484
7.74629e-05
-0.00812243
9.22968e-05
-0.0097811
0.000109809
-0.0117475
0.000131656
-0.0141023
0.000157064
-0.0169279
-0.0203222
0.00018634
-1.08418e-07
-1.84212e-05
5.0899e-07
-7.16708e-05
5.42868e-07
-0.000152228
2.32416e-06
-0.000256508
3.42268e-06
-0.00037404
4.4768e-06
-0.000513859
5.03456e-06
-0.000680838
8.30887e-06
-0.000883185
9.56956e-06
-0.00112989
1.58421e-05
-0.00143799
1.63638e-05
-0.00180924
2.24864e-05
-0.00227362
2.65328e-05
-0.00284273
3.31898e-05
-0.00354671
4.2776e-05
-0.00440976
5.18179e-05
-0.00545788
6.20475e-05
-0.00670505
7.3814e-05
-0.00813421
8.76391e-05
-0.00979491
0.000105147
-0.011765
0.000128354
-0.0141255
0.00015401
-0.0169536
-0.0203528
0.000184621
2.13751e-07
-1.86314e-05
1.09549e-07
-7.15709e-05
1.32624e-06
-0.000153434
3.51361e-07
-0.000255541
2.23209e-06
-0.00037591
3.77532e-06
-0.000515412
4.99692e-06
-0.000682046
7.25376e-06
-0.000885454
1.09717e-05
-0.00113359
1.21252e-05
-0.00143916
1.76247e-05
-0.00181472
2.19978e-05
-0.00227802
2.52641e-05
-0.00284596
3.1484e-05
-0.00355296
3.88023e-05
-0.00441705
4.7177e-05
-0.00546628
5.61968e-05
-0.00671405
6.73317e-05
-0.00814536
8.10064e-05
-0.00980857
9.77852e-05
-0.0117818
0.000117806
-0.0141455
0.000142452
-0.0169782
-0.0203839
0.000173531
6.39057e-08
-1.86958e-05
3.38783e-07
-7.18448e-05
2.75165e-07
-0.00015337
1.68054e-06
-0.000256946
2.85831e-06
-0.000377087
3.72878e-06
-0.000516284
5.53244e-06
-0.000683848
7.02382e-06
-0.000886949
9.31975e-06
-0.00113589
1.07236e-05
-0.00144057
1.55996e-05
-0.0018196
1.9764e-05
-0.00228219
2.6821e-05
-0.00285301
3.22704e-05
-0.00355842
3.74293e-05
-0.0044222
4.70276e-05
-0.00547589
5.41877e-05
-0.00672119
6.66473e-05
-0.00815782
7.97773e-05
-0.00982169
9.36171e-05
-0.0117957
0.0001134
-0.0141653
0.000139265
-0.0170041
-0.0204095
0.00016494
1.23175e-07
-1.88201e-05
4.41969e-07
-7.21732e-05
7.99795e-07
-0.000153723
1.74747e-06
-0.000257904
2.46561e-06
-0.000377799
2.59842e-06
-0.000516428
5.22413e-06
-0.000686464
7.05978e-06
-0.000888797
9.34327e-06
-0.00113816
1.21094e-05
-0.00144335
1.40375e-05
-0.00182151
1.80899e-05
-0.00228626
2.25236e-05
-0.00285744
3.03421e-05
-0.00356626
3.47578e-05
-0.00442661
4.45235e-05
-0.00548568
5.3168e-05
-0.00672983
6.30223e-05
-0.00816768
7.57739e-05
-0.00983444
9.3203e-05
-0.0118131
0.000112032
-0.0141841
0.000132127
-0.0170242
-0.0204358
0.000158349
2.06797e-07
-1.9033e-05
5.70375e-07
-7.25431e-05
5.73731e-07
-0.00015373
2.06842e-06
-0.000259405
2.11502e-06
-0.000377848
4.31037e-06
-0.000518631
4.63085e-06
-0.000686783
6.42586e-06
-0.000890602
8.65025e-06
-0.00114038
1.27516e-05
-0.00144747
1.60675e-05
-0.00182482
2.00038e-05
-0.00229022
2.4693e-05
-0.00286211
2.80096e-05
-0.0035696
3.81966e-05
-0.00443678
4.13868e-05
-0.00548889
5.15812e-05
-0.00674002
5.9971e-05
-0.00817607
7.449e-05
-0.00984895
9.00912e-05
-0.0118287
0.000106782
-0.0142008
0.000131437
-0.0170489
-0.0204617
0.000157364
7.73323e-08
-1.9122e-05
3.4612e-07
-7.28362e-05
8.30215e-07
-0.00015422
1.51484e-06
-0.000260112
3.3708e-06
-0.000379702
3.48949e-06
-0.00051877
6.08823e-06
-0.000689375
7.85143e-06
-0.000892385
1.00355e-05
-0.00114255
1.12643e-05
-0.00144871
1.5931e-05
-0.00182948
1.77682e-05
-0.00229207
2.4308e-05
-0.00286864
2.78524e-05
-0.00357315
3.56141e-05
-0.00444453
4.25956e-05
-0.00549588
4.85168e-05
-0.00674592
6.04802e-05
-0.00818803
7.31166e-05
-0.00986157
8.86682e-05
-0.0118442
0.000109464
-0.0142216
0.000130037
-0.0170694
-0.0204883
0.000156703
3.50196e-08
-1.91529e-05
1.8595e-07
-7.29837e-05
5.86172e-07
-0.000154613
1.18645e-06
-0.000260711
2.03554e-06
-0.000380546
3.11608e-06
-0.000519853
4.46485e-06
-0.000690718
6.1228e-06
-0.000894049
8.16834e-06
-0.00114459
1.20392e-05
-0.00145259
1.16913e-05
-0.00182912
1.71553e-05
-0.00229755
2.13492e-05
-0.00287282
2.57653e-05
-0.00357759
2.97329e-05
-0.00444849
3.81264e-05
-0.0055043
4.6074e-05
-0.00675387
5.59941e-05
-0.00819797
6.84131e-05
-0.00987399
8.32143e-05
-0.011859
0.000101768
-0.0142401
0.000123998
-0.0170917
-0.0205135
0.000149193
-1.29981e-07
-1.9026e-05
-7.7159e-08
-7.30431e-05
9.61703e-07
-0.000155654
5.69721e-07
-0.000260325
2.47547e-06
-0.000382451
3.49214e-06
-0.000520875
3.29665e-06
-0.000690521
4.82311e-06
-0.000895581
6.7136e-06
-0.00114648
9.01605e-06
-0.0014549
1.36633e-05
-0.00183377
1.69886e-05
-0.00230088
1.88856e-05
-0.00287471
2.55844e-05
-0.00358429
3.05512e-05
-0.00445345
3.69704e-05
-0.00551071
4.47569e-05
-0.00676165
5.46206e-05
-0.00820782
6.47012e-05
-0.00988407
8.22922e-05
-0.0118766
0.000100441
-0.0142583
0.000124783
-0.017116
-0.0205394
0.000150652
7.05179e-08
-1.90797e-05
3.01495e-07
-7.32523e-05
1.31323e-06
-0.000156648
1.99083e-06
-0.000260989
7.26067e-07
-0.000381177
4.12427e-06
-0.000524266
4.27932e-06
-0.000690669
5.86082e-06
-0.000897157
7.76901e-06
-0.00114838
1.00572e-05
-0.00145719
1.24321e-05
-0.00183614
1.57154e-05
-0.00230417
1.95828e-05
-0.00287858
2.41623e-05
-0.00358888
2.96253e-05
-0.00445891
3.61196e-05
-0.00551721
4.63289e-05
-0.00677186
5.4042e-05
-0.00821554
6.84039e-05
-0.00989843
8.14092e-05
-0.0118896
9.98725e-05
-0.0142767
0.00012204
-0.0171382
-0.0205638
0.000146477
1.87828e-07
-1.92635e-05
4.13752e-07
-7.34758e-05
-4.14262e-07
-0.000155815
1.13561e-06
-0.000262538
2.84548e-06
-0.000382882
1.45756e-06
-0.000522878
5.31801e-06
-0.000694525
6.8738e-06
-0.000898713
7.06181e-06
-0.00114857
9.26894e-06
-0.00145939
1.37744e-05
-0.00184064
1.4987e-05
-0.00230537
2.07602e-05
-0.00288434
2.31584e-05
-0.00359126
3.07271e-05
-0.00446646
3.49682e-05
-0.00552144
4.2441e-05
-0.00677931
5.4804e-05
-0.0082279
6.73438e-05
-0.00991096
8.03125e-05
-0.0119026
9.86944e-05
-0.0142951
0.000122614
-0.0171621
-0.0205903
0.000149108
-1.79541e-07
-1.90627e-05
-3.9166e-08
-7.35888e-05
1.55258e-06
-0.000157384
1.16768e-06
-0.000262133
1.01446e-06
-0.000382713
3.00245e-06
-0.000524851
4.16043e-06
-0.00069567
5.58335e-06
-0.000900122
8.98393e-06
-0.00115196
9.3019e-06
-0.0014597
1.17886e-05
-0.00184311
1.47628e-05
-0.00230833
1.83324e-05
-0.00288791
2.26616e-05
-0.00359558
2.57698e-05
-0.00446957
3.61699e-05
-0.00553185
4.22695e-05
-0.0067854
5.1894e-05
-0.00823754
6.44911e-05
-0.00992354
8.3969e-05
-0.0119221
0.000100135
-0.0143113
0.000120075
-0.017182
-0.0206151
0.000144851
1.97544e-07
-1.92413e-05
4.62149e-07
-7.38298e-05
2.26278e-07
-0.000157128
7.93098e-07
-0.000262682
3.60536e-06
-0.000385511
3.4797e-06
-0.000524712
3.09682e-06
-0.000695276
4.37273e-06
-0.000901386
5.96687e-06
-0.00115354
9.70746e-06
-0.00146342
1.02257e-05
-0.00184362
1.50271e-05
-0.00231311
1.8108e-05
-0.00289098
2.24067e-05
-0.00359986
2.76982e-05
-0.00447484
3.23597e-05
-0.0055365
4.21625e-05
-0.00679518
5.2312e-05
-0.00824769
6.2635e-05
-0.00993385
7.56433e-05
-0.0119351
9.82164e-05
-0.0143338
0.000120064
-0.0172039
-0.0206417
0.000146676
1.22881e-07
-1.9334e-05
7.64078e-07
-7.4441e-05
6.64262e-07
-0.000156995
2.15027e-06
-0.000264148
1.68048e-06
-0.000385019
3.57084e-06
-0.000526589
3.40868e-06
-0.000695097
4.60822e-06
-0.000902573
7.44181e-06
-0.00115636
9.3039e-06
-0.00146527
1.00814e-05
-0.00184438
1.24152e-05
-0.00231543
1.61323e-05
-0.00289469
2.19534e-05
-0.00360566
2.71255e-05
-0.00448001
3.12604e-05
-0.0055406
3.91283e-05
-0.00680305
4.92336e-05
-0.00825778
6.36207e-05
-0.00994823
7.8844e-05
-0.0119503
9.67796e-05
-0.0143518
0.000121196
-0.0172283
-0.0206609
0.000140448
2.08039e-07
-1.95176e-05
1.63479e-07
-7.43705e-05
1.12518e-06
-0.000157931
9.23925e-07
-0.000263929
1.55836e-06
-0.000385636
2.35044e-06
-0.000527368
3.35853e-06
-0.000696093
5.87772e-06
-0.00090508
6.10884e-06
-0.00115658
8.01185e-06
-0.00146716
1.18055e-05
-0.00184817
1.3062e-05
-0.00231668
1.60866e-05
-0.0028977
2.07777e-05
-0.00361034
2.61848e-05
-0.00448541
3.4667e-05
-0.00554907
4.48008e-05
-0.00681317
5.30611e-05
-0.00826603
6.42274e-05
-0.00995939
8.18791e-05
-0.011968
0.000100999
-0.0143709
0.000121697
-0.017249
-0.0206886
0.000149312
7.0643e-08
-1.95651e-05
2.32969e-07
-7.45132e-05
5.64474e-07
-0.000158236
1.83135e-06
-0.000265184
1.55187e-06
-0.000385339
2.34692e-06
-0.000528154
4.53351e-06
-0.000698266
4.56654e-06
-0.000905105
6.13378e-06
-0.00115814
8.02664e-06
-0.00146905
1.03403e-05
-0.00185048
1.47349e-05
-0.00232107
1.66063e-05
-0.00289957
2.26576e-05
-0.00361639
2.60595e-05
-0.00448881
3.29459e-05
-0.00555596
4.14409e-05
-0.00682167
5.44038e-05
-0.00827898
6.70527e-05
-0.00997204
8.29495e-05
-0.0119839
0.000102272
-0.0143902
0.00012361
-0.0172703
-0.0207198
0.000154846
-6.74948e-08
-1.94854e-05
5.03927e-08
-7.46087e-05
3.07586e-07
-0.000158483
7.29034e-07
-0.000265587
2.24209e-06
-0.000386849
3.03069e-06
-0.000528928
2.85227e-06
-0.000698084
5.33853e-06
-0.000907578
6.84452e-06
-0.00115964
6.92859e-06
-0.00146912
1.10027e-05
-0.00185454
1.37522e-05
-0.00232381
1.71595e-05
-0.00290296
1.93481e-05
-0.00361857
2.6951e-05
-0.00449638
3.36981e-05
-0.00556271
3.97318e-05
-0.00682768
5.19168e-05
-0.00829115
6.45288e-05
-0.00998462
7.97237e-05
-0.011999
9.57676e-05
-0.0144062
0.000119816
-0.0172944
-0.0207473
0.000147389
1.0654e-07
-1.95886e-05
1.60093e-07
-7.46677e-05
3.93822e-07
-0.000158705
-2.3086e-07
-0.000264971
2.79653e-07
-0.000387345
1.22357e-06
-0.000529884
3.34578e-06
-0.000700185
3.2572e-06
-0.000907505
4.43203e-06
-0.00116079
7.96944e-06
-0.00147268
8.37344e-06
-0.00185492
1.10548e-05
-0.00232651
1.60577e-05
-0.00290793
1.85866e-05
-0.00362112
2.57608e-05
-0.00450352
3.24775e-05
-0.00556944
4.07301e-05
-0.0068359
4.67352e-05
-0.00829716
6.3194e-05
-0.0100011
7.55987e-05
-0.0120115
9.50174e-05
-0.0144256
0.00011589
-0.0173153
-0.0207679
0.000136496
-2.21029e-07
-2.00305e-07
6.95236e-07
1.07422e-06
1.62063e-06
2.07566e-06
3.282e-06
4.15353e-06
5.91943e-06
5.9289e-06
9.93206e-06
1.25611e-05
1.58589e-05
2.16903e-05
2.48632e-05
3.1454e-05
3.96304e-05
5.16071e-05
5.97575e-05
7.64713e-05
9.4477e-05
0.00011804
0.000145725
1.44673e-08
-2.06633e-05
2.06413e-05
1.15635e-07
-7.95767e-05
7.94578e-05
3.05138e-07
-0.000167828
0.000167634
5.65489e-07
-0.000279082
0.000278805
8.85395e-07
-0.000403667
0.000403349
2.50629e-06
-0.000552861
0.000551225
1.79422e-06
-0.000728017
0.000728732
3.92219e-06
-0.000942168
0.000940024
3.34342e-06
-0.00120421
0.00120479
4.45332e-06
-0.00152667
0.00152555
5.86222e-06
-0.00192279
0.00192138
7.59169e-06
-0.00241372
0.00241197
9.73637e-06
-0.00301617
0.00301403
1.22742e-05
-0.00376036
0.0037578
1.52756e-05
-0.00467783
0.00467483
1.8587e-05
-0.0057905
0.00578715
2.18136e-05
-0.00710802
0.0071048
2.57059e-05
-0.00862884
0.00862493
3.24594e-05
-0.0104016
0.0103949
3.63193e-05
-0.0125065
0.0125026
4.54313e-05
-0.0150269
0.0150178
5.37858e-05
-0.0180386
0.0180303
-0.0216138
0.0216086
5.89242e-05
1.57303e-08
-2.06936e-05
-3.46851e-07
-7.92399e-05
-3.00886e-07
-0.000167886
-1.66263e-07
-0.000279237
1.2898e-07
-0.000403967
5.4828e-07
-0.000553297
1.08255e-06
-0.000728553
1.77138e-06
-0.000942872
2.67069e-06
-0.00120511
3.77328e-06
-0.00152779
5.16851e-06
-0.00192418
6.86729e-06
-0.00241544
8.93283e-06
-0.00301824
1.3153e-05
-0.0037646
1.41013e-05
-0.00467877
1.72706e-05
-0.00579368
2.06284e-05
-0.00711137
2.41987e-05
-0.00863241
2.89803e-05
-0.0104064
3.48617e-05
-0.0125124
4.19499e-05
-0.015034
4.82081e-05
-0.0180449
-0.0216271
6.15349e-05
5.87779e-09
-2.07137e-05
-3.33504e-07
-7.8922e-05
2.97594e-07
-0.000168531
-3.68943e-07
-0.000278587
1.9503e-06
-0.000406293
1.17478e-06
-0.000552534
4.57743e-07
-0.000727844
2.41778e-06
-0.000944843
3.2721e-06
-0.00120597
4.33907e-06
-0.00152887
7.22745e-06
-0.00192708
7.24946e-06
-0.00241546
9.19169e-06
-0.0030202
1.15387e-05
-0.00376693
1.42287e-05
-0.00468149