/*--------------------------------*- C++ -*----------------------------------*\
  =========                 |
  \\      /  F ield         | OpenFOAM: The Open Source CFD Toolbox
   \\    /   O peration     | Website:  https://openfoam.org
    \\  /    A nd           | Version:  10
     \\/     M anipulation  |
\*---------------------------------------------------------------------------*/
FoamFile
{
    format      ascii;
    class       volVectorField;
    location    "100";
    object      U;
}
// * * * * * * * * * * * * * * * * * * * * * * * * * * * * * * * * * * * * * //

dimensions      [0 1 -1 0 0 0 0];

internalField   nonuniform List<vector> 
96890
(
(1.6839 -0.226879 2.87117e-23)
(5.42428 -0.73206 -9.89239e-23)
(9.73132 -1.31481 9.29799e-23)
(13.7369 -1.85409 1.5213e-22)
(16.8929 -2.27889 -4.95765e-19)
(19.3995 -2.61595 4.01802e-19)
(21.4808 -2.89438 3.42103e-19)
(23.2839 -3.13488 -3.04059e-19)
(24.8972 -3.34931 5.34326e-22)
(26.3781 -3.54465 2.62835e-19)
(27.7644 -3.72624 -2.53485e-19)
(29.0826 -3.89737 2.46937e-19)
(30.3536 -4.06074 -2.37102e-19)
(31.592 -4.21734 -2.33436e-19)
(32.7867 -4.36668 2.24128e-19)
(33.8843 -4.50011 2.01022e-19)
(34.7554 -4.60093 -1.88862e-19)
(35.2303 -4.64551 0)
(35.3727 -4.64176 0)
(35.403 -4.61797 -1.23275e-19)
(35.4172 -4.58703 8.52915e-20)
(35.4317 -4.54912 -9.95171e-21)
(35.4568 -4.49743 3.39783e-20)
(2.36098 -0.0838063 2.65743e-19)
(7.53995 -0.267426 -4.23552e-19)
(13.1901 -0.467644 3.86713e-19)
(17.9694 -0.636938 6.7269e-23)
(21.5423 -0.763328 -2.28379e-19)
(24.3434 -0.862309 0)
(26.665 -0.944279 0)
(28.6821 -1.01532 -1.39436e-22)
(30.4997 -1.07921 1.31642e-19)
(32.1783 -1.13814 4.69261e-22)
(33.7573 -1.19331 -1.21476e-19)
(35.2651 -1.24594 -4.57252e-22)
(36.7267 -1.29666 1.1474e-19)
(38.1626 -1.34612 -1.10573e-19)
(39.561 -1.394 -9.38805e-24)
(40.832 -1.43691 0)
(41.8274 -1.47065 -2.69977e-21)
(42.4409 -1.48975 2.32851e-21)
(42.7778 -1.50182 7.97537e-21)
(42.9834 -1.50107 5.36595e-20)
(43.1016 -1.5094 -5.61355e-20)
(43.0856 -1.48881 9.3324e-21)
(42.7487 -1.48825 0)
(2.36894 -0.0822184 -5.34808e-19)
(7.5613 -0.262406 1.30797e-24)
(13.2192 -0.458505 3.88644e-19)
(18.0002 -0.624058 -2.99666e-19)
(21.5717 -0.747622 4.59159e-19)
(24.3722 -0.844433 -3.7252e-19)
(26.6919 -0.92445 9.08842e-24)
(28.7065 -0.993837 1.0432e-23)
(30.5209 -1.05627 1.22781e-23)
(32.1976 -1.11389 2.51319e-19)
(33.7759 -1.16792 -2.41332e-19)
(35.284 -1.21945 2.75102e-23)
(36.7469 -1.26916 2.30898e-19)
(38.1841 -1.31764 -1.1303e-19)
(39.582 -1.36444 3.32251e-21)
(40.8502 -1.4064 9.74865e-20)
(41.8423 -1.43933 2.63184e-21)
(42.4558 -1.45808 -7.23903e-23)
(42.7953 -1.47003 -6.82329e-20)
(43.0026 -1.46905 0)
(43.1195 -1.47755 5.62685e-21)
(43.1023 -1.45975 -3.76142e-20)
(42.7689 -1.47205 3.16496e-20)
(1.57999 -0.224209 0)
(5.03124 -0.715563 -4.86868e-20)
(8.98299 -1.27976 6.49387e-20)
(12.7129 -1.81193 0)
(15.6537 -2.22934 -2.25098e-23)
(17.9562 -2.55352 7.3131e-20)
(19.8384 -2.81778 -5.1277e-19)
(21.4836 -3.05867 -4.93105e-19)
(22.9804 -3.27718 9.11524e-19)
(24.3731 -3.47826 -4.31133e-19)
(25.6852 -3.66601 0)
(26.9365 -3.84191 -1.539e-21)
(28.1472 -4.00874 -3.9004e-19)
(29.3365 -4.15707 3.9006e-19)
(30.5092 -4.31186 -6.07044e-21)
(31.6552 -4.42865 -5.76686e-21)
(32.6205 -4.51784 2.03182e-20)
(33.2068 -4.53625 0)
(33.4124 -4.48343 0)
(33.4521 -4.38989 1.32694e-20)
(33.4684 -4.27401 0)
(33.5033 -4.14324 1.71569e-20)
(33.5467 -3.99695 -2.84639e-20)
(0.0624416 0.0154075 0)
(0.159942 0.0411507 0)
(0.265162 0.0685859 0)
(0.356727 0.0955777 0)
(0.354095 0.113131 0)
(0.399848 0.113468 0)
(0.648847 0.101081 0)
(0.928201 0.0883497 0)
(1.26168 0.0757454 0)
(1.69325 0.0653085 0)
(2.17946 0.0558291 0)
(2.76747 0.0463354 0)
(3.46244 0.0359606 0)
(4.2612 0.024868 0)
(5.17743 0.0124364 0)
(6.22781 -0.00081586 0)
(7.39052 -0.0150304 0)
(8.66216 -0.0281006 0)
(10.0142 -0.0403497 0)
(11.5074 -0.0451513 0)
(12.9538 -0.0518085 0)
(14.4984 -0.0605582 0)
(16.5382 -0.0955727 0)
(1.50289 -0.208321 -9.01614e-23)
(4.86468 -0.674927 1.19436e-18)
(8.79882 -1.21931 9.14928e-24)
(12.5766 -1.74137 -9.88325e-19)
(15.5999 -2.1591 -3.66877e-22)
(18.0129 -2.49065 0)
(20.0274 -2.766 5.27344e-22)
(21.7819 -3.00405 0)
(23.361 -3.21671 8.20327e-22)
(24.8161 -3.41022 -7.7092e-22)
(26.1793 -3.58981 0)
(27.4744 -3.75727 -3.74117e-19)
(28.7224 -3.91558 3.61728e-19)
(29.9424 -4.06661 -5.47604e-21)
(31.1356 -4.20938 0)
(32.2656 -4.33743 3.11437e-19)
(33.2169 -4.43499 -2.89757e-19)
(33.7837 -4.47385 7.48608e-21)
(33.9817 -4.45578 6.7072e-22)
(34.0262 -4.40616 -5.75264e-22)
(34.0453 -4.34349 1.91487e-20)
(34.0718 -4.25988 1.39385e-19)
(34.1 -4.1716 -1.03671e-19)
(1.48998 -0.207256 -3.99082e-24)
(4.82062 -0.672276 0)
(8.71733 -1.21569 1.24988e-18)
(12.46 -1.73803 -1.03541e-18)
(15.4549 -2.15557 -8.05028e-19)
(17.8448 -2.48827 6.5151e-19)
(19.8478 -2.76597 5.54541e-19)
(21.5973 -3.00598 9.19446e-23)
(23.1725 -3.22039 -4.53629e-19)
(24.6249 -3.41489 8.49225e-22)
(25.9861 -3.59423 4.07415e-19)
(27.2779 -3.76085 -3.91199e-19)
(28.5205 -3.91695 0)
(29.7303 -4.06442 3.68067e-19)
(30.9074 -4.20116 3.8978e-22)
(32.0207 -4.32512 -3.28505e-19)
(32.9707 -4.4203 -4.68722e-22)
(33.5416 -4.45594 -2.6039e-19)
(33.7383 -4.43344 2.0917e-19)
(33.7775 -4.37435 2.00045e-19)
(33.7923 -4.2994 -1.92668e-20)
(33.8187 -4.20643 -1.72231e-20)
(33.8513 -4.08395 -8.18329e-20)
(1.63962 -0.223411 1.34019e-22)
(5.27879 -0.719744 -2.20833e-22)
(9.4831 -1.292 2.17982e-22)
(13.4321 -1.8292 0)
(16.5564 -2.25317 2.85079e-22)
(19.0399 -2.58934 2.30807e-22)
(21.1055 -2.86822 0)
(22.8981 -3.10872 3.34303e-22)
(24.5048 -3.32323 0)
(25.9791 -3.5184 0)
(27.3563 -3.69943 -1.10596e-21)
(28.6643 -3.86944 -2.78102e-19)
(29.9281 -4.0314 2.73074e-19)
(31.164 -4.18738 2.67003e-19)
(32.3628 -4.33574 -2.52265e-19)
(33.471 -4.46898 -3.57454e-21)
(34.3582 -4.56928 -6.41002e-21)
(34.8542 -4.61326 -1.82884e-19)
(35.0073 -4.60754 1.47298e-19)
(35.0405 -4.58045 -1.41233e-19)
(35.0556 -4.54555 1.11398e-19)
(35.0723 -4.50133 5.01318e-22)
(35.0955 -4.46122 0)
(1.62087 -0.221373 -1.4009e-22)
(5.22148 -0.713602 -5.10957e-24)
(9.38788 -1.28203 5.05229e-24)
(13.3138 -1.81715 -1.92095e-22)
(16.4271 -2.24058 -2.86103e-22)
(18.9004 -2.5766 -2.3163e-22)
(20.9608 -2.85433 0)
(22.749 -3.09484 -3.66442e-22)
(24.3523 -3.30898 -3.3701e-19)
(25.8246 -3.50411 3.16307e-19)
(27.2001 -3.68471 0)
(28.5061 -3.85409 -1.12164e-21)
(29.7668 -4.01536 0)
(31.0004 -4.17074 -2.11769e-21)
(32.2 -4.31849 0)
(33.3123 -4.45117 3.91104e-21)
(34.2069 -4.55144 -7.01838e-21)
(34.7114 -4.59491 6.12427e-21)
(34.8696 -4.58821 -1.05033e-20)
(34.9043 -4.55886 -1.30455e-19)
(34.9201 -4.52138 2.18242e-19)
(34.9384 -4.47163 -9.69587e-20)
(34.9618 -4.42036 2.07825e-20)
(1.60061 -0.219309 1.46503e-22)
(5.15984 -0.707542 1.18135e-22)
(9.28563 -1.27222 -1.17001e-22)
(13.1863 -1.80557 3.94434e-22)
(16.2854 -2.22837 -3.13869e-22)
(18.7487 -2.56387 0)
(20.8031 -2.84131 0)
(22.586 -3.08198 3.67426e-22)
(24.1857 -3.29546 -3.53018e-19)
(25.6557 -3.4905 3.31957e-19)
(27.0297 -3.67067 0)
(28.3337 -3.83968 -1.2275e-21)
(29.5919 -4.00028 0)
(30.8237 -4.15441 -2.31536e-21)
(32.0232 -4.30139 -2.76123e-19)
(33.1393 -4.43324 2.52219e-19)
(34.0431 -4.53304 2.37113e-19)
(34.5584 -4.57596 -4.07818e-19)
(34.7221 -4.56797 1.82653e-19)
(34.7585 -4.53643 0)
(34.7751 -4.49669 1.49352e-20)
(34.7946 -4.44689 -1.01524e-19)
(34.8185 -4.39442 4.2718e-20)
(1.57777 -0.216873 -1.53306e-22)
(5.09151 -0.700283 0)
(9.17404 -1.26046 0)
(13.0471 -1.79149 -8.48017e-19)
(16.1308 -2.21314 6.60217e-19)
(18.5831 -2.54772 0)
(20.6282 -2.82476 0)
(22.406 -3.06488 0)
(24.0028 -3.27805 0)
(25.4705 -3.47283 6.65219e-22)
(26.8429 -3.65256 1.33112e-21)
(28.1453 -3.82108 2.51649e-21)
(29.402 -3.98073 -3.13035e-19)
(30.6317 -4.13383 3.05538e-19)
(31.8307 -4.27982 0)
(32.9509 -4.41058 2.68529e-19)
(33.8654 -4.50989 -2.41366e-19)
(34.3926 -4.55217 -6.73782e-21)
(34.5637 -4.54227 0)
(34.6026 -4.50792 -1.52446e-19)
(34.6209 -4.46395 1.41105e-22)
(34.6434 -4.40675 1.07538e-19)
(34.6701 -4.35856 -6.71444e-20)
(1.55307 -0.213946 7.83956e-23)
(5.0169 -0.691782 -1.08545e-18)
(9.05192 -1.24693 -1.0955e-23)
(12.8957 -1.7747 8.91048e-19)
(15.9596 -2.19542 -6.93824e-19)
(18.4016 -2.52907 5.60794e-19)
(20.4388 -2.8054 0)
(22.2112 -3.04475 0)
(23.8042 -3.25791 7.78069e-22)
(25.269 -3.4521 7.31253e-22)
(26.6392 -3.6313 -1.3338e-21)
(27.9399 -3.7992 -3.38888e-19)
(29.1946 -3.9578 3.27949e-19)
(30.422 -4.11008 -3.17682e-19)
(31.62 -4.25441 3.077e-19)
(32.7439 -4.38418 0)
(33.6703 -4.48268 -8.11145e-21)
(34.2092 -4.52405 -2.14429e-19)
(34.3896 -4.51192 2.01506e-19)
(34.4308 -4.47387 -1.59972e-19)
(34.4498 -4.42526 1.34276e-19)
(34.4735 -4.36115 -2.80664e-20)
(34.5005 -4.2938 1.17053e-19)
(1.5282 -0.211396 0)
(4.9419 -0.684032 6.52308e-24)
(8.92786 -1.23442 0)
(12.7399 -1.76054 0)
(15.785 -2.17942 -7.29798e-19)
(18.2143 -2.51169 5.89601e-19)
(20.2409 -2.78811 0)
(22.0051 -3.02641 0)
(23.5916 -3.23935 -1.59732e-21)
(25.0529 -3.43284 -3.84076e-19)
(26.4213 -3.61166 3.66907e-19)
(27.7201 -3.77892 -3.52999e-19)
(28.9725 -3.93636 3.44026e-19)
(30.1967 -4.08733 3.35778e-19)
(31.3921 -4.22969 -3.2251e-19)
(32.5183 -4.35806 -2.95805e-19)
(33.4571 -4.45569 2.74648e-19)
(34.009 -4.49628 -2.4024e-19)
(34.1982 -4.48202 6.26642e-22)
(34.241 -4.43973 1.57604e-19)
(34.2601 -4.38622 1.41163e-19)
(34.2847 -4.31677 -9.25163e-22)
(34.312 -4.25299 -1.22553e-19)
(1.65915 -0.225413 -5.25227e-19)
(5.33667 -0.725459 2.20117e-24)
(9.57644 -1.30094 8.5138e-19)
(13.5429 -1.83859 6.98611e-19)
(16.6766 -2.26272 -1.08839e-18)
(19.1697 -2.59968 4.40777e-19)
(21.2417 -2.87861 0)
(23.0374 -3.11909 3.33504e-19)
(24.6458 -3.33341 3.04217e-23)
(26.1218 -3.52896 -5.76798e-19)
(27.5019 -3.71021 5.53608e-19)
(28.8134 -3.88054 -1.02064e-21)
(30.0797 -4.04318 -2.60989e-19)
(31.3168 -4.19953 1.93677e-21)
(32.5146 -4.34824 0)
(33.6186 -4.48179 2.30617e-19)
(34.4992 -4.58219 -1.87911e-19)
(34.9873 -4.6267 1.74998e-19)
(35.1357 -4.62182 -2.90533e-19)
(35.1674 -4.5963 1.26921e-19)
(35.1821 -4.56251 1.30448e-20)
(35.1982 -4.52011 1.13743e-20)
(35.2236 -4.47388 -7.39926e-20)
(1.85086 -0.216695 0)
(5.85554 -0.741313 -5.71004e-24)
(10.1648 -1.26212 -4.26546e-20)
(13.9059 -1.74732 -1.57927e-22)
(16.757 -2.15876 1.38934e-20)
(18.9706 -2.50303 0)
(20.7654 -2.78995 -1.63957e-20)
(22.2972 -3.04073 1.83818e-20)
(23.6719 -3.26738 -4.19908e-23)
(24.9527 -3.4793 2.74312e-20)
(26.1762 -3.68639 -3.6375e-20)
(27.3484 -3.88934 -1.67876e-22)
(28.4689 -4.10783 9.24269e-20)
(29.5421 -4.39759 -3.98899e-19)
(30.5735 -4.45053 4.98227e-21)
(31.4064 -4.61386 3.76399e-19)
(32.2434 -4.65257 -3.48002e-19)
(32.7358 -4.6036 3.14391e-19)
(32.8899 -4.50225 -2.68767e-19)
(32.9348 -4.34828 -2.38667e-19)
(32.982 -4.17635 1.86862e-19)
(33.0586 -3.99457 0)
(33.1552 -3.78191 0)
(1.67461 -0.226618 6.27703e-23)
(5.38397 -0.729071 2.02194e-22)
(9.65463 -1.30629 8.14464e-19)
(13.639 -1.84528 -6.67471e-19)
(16.7844 -2.26981 -2.59398e-22)
(19.2865 -2.60617 0)
(21.3639 -2.88511 0)
(23.1629 -3.12567 -3.17971e-22)
(24.7742 -3.34005 2.92973e-19)
(26.2532 -3.53537 -2.75308e-19)
(27.636 -3.71691 -2.64372e-19)
(28.9505 -3.88775 2.55359e-19)
(30.2197 -4.05097 0)
(31.4582 -4.20769 -1.93505e-21)
(32.6548 -4.35705 -3.53026e-21)
(33.7554 -4.49091 -1.44788e-22)
(34.6304 -4.59194 1.91736e-19)
(35.1112 -4.63683 -1.67468e-19)
(35.2559 -4.63368 0)
(35.2862 -4.61041 -1.14167e-19)
(35.2996 -4.58013 8.90059e-20)
(35.3133 -4.5449 0)
(35.3359 -4.50855 -8.92084e-20)
(1.79659 -0.23578 -6.21683e-19)
(5.76818 -0.756227 5.10962e-19)
(10.3031 -1.3503 -4.97048e-19)
(14.4446 -1.89314 4.02665e-19)
(17.6697 -2.31524 0)
(20.2196 -2.6484 -2.5363e-19)
(22.3333 -2.92414 2.16444e-19)
(24.1622 -3.16239 3.77134e-22)
(25.8011 -3.37497 0)
(27.3053 -3.56975 1.68271e-19)
(28.7103 -3.7507 3.99082e-23)
(30.0425 -3.9214 -3.13914e-19)
(31.322 -4.0843 3.04701e-19)
(32.5631 -4.24136 -1.4737e-19)
(33.7559 -4.39054 -1.44048e-19)
(34.8476 -4.52538 -9.19435e-23)
(35.6879 -4.62546 1.1775e-19)
(36.1072 -4.66962 9.62805e-20)
(36.2308 -4.67371 3.34738e-22)
(36.2616 -4.66134 9.38596e-21)
(36.2781 -4.64705 -1.24894e-19)
(36.2916 -4.62039 4.55856e-20)
(36.3189 -4.60157 -1.11717e-20)
(1.70097 -0.230057 4.60097e-19)
(5.47652 -0.73801 -9.06533e-23)
(9.81532 -1.32084 -9.27147e-23)
(13.8332 -1.86185 -6.07507e-19)
(16.9983 -2.28618 -1.55675e-23)
(19.5096 -2.623 3.82705e-19)
(21.5927 -2.90146 3.2607e-19)
(23.3969 -3.1416 -2.89721e-19)
(25.0129 -3.35581 -2.23162e-23)
(26.4968 -3.55167 4.81044e-22)
(27.8862 -3.73335 -2.40307e-19)
(29.2073 -3.90492 -9.83572e-22)
(30.48 -4.0686 -1.30644e-22)
(31.7183 -4.22556 1.70529e-21)
(32.9105 -4.37508 3.15852e-21)
(34.0053 -4.50887 1.92377e-19)
(34.8737 -4.61034 5.36317e-21)
(35.3428 -4.65474 0)
(35.4821 -4.65342 0)
(35.512 -4.63209 1.10943e-19)
(35.5266 -4.60539 -8.11825e-20)
(35.542 -4.57046 9.93845e-21)
(35.5719 -4.53244 -3.25189e-20)
(1.72105 -0.230861 -5.28458e-23)
(5.52464 -0.741609 3.75028e-24)
(9.88473 -1.32608 0)
(13.9176 -1.8669 0)
(17.0898 -2.29111 -4.51735e-19)
(19.6081 -2.62765 3.65712e-19)
(21.6953 -2.90582 -3.11208e-19)
(23.5009 -3.14573 2.7713e-19)
(25.1194 -3.35964 -5.08849e-22)
(26.6064 -3.55535 -2.41115e-19)
(27.9987 -3.73733 2.29983e-19)
(29.322 -3.90903 8.57258e-22)
(30.5959 -4.07268 -1.744e-21)
(31.8339 -4.22999 -1.62042e-21)
(33.0245 -4.37949 -3.22208e-21)
(34.1172 -4.51361 -1.81304e-19)
(34.983 -4.61527 1.62391e-19)
(35.4466 -4.66022 -1.46438e-19)
(35.5828 -4.65955 1.25575e-19)
(35.6119 -4.63995 -6.50033e-21)
(35.6256 -4.61486 7.82936e-20)
(35.6388 -4.58221 5.85926e-23)
(35.6681 -4.54904 -6.176e-20)
(1.73312 -0.231921 5.2847e-23)
(5.56261 -0.744722 3.65615e-24)
(9.9476 -1.33088 6.79579e-19)
(13.9951 -1.87223 -5.54414e-19)
(17.1748 -2.29628 4.31528e-19)
(19.6979 -2.63265 2.56253e-23)
(21.7878 -2.91047 -2.97982e-19)
(23.5973 -3.15004 -2.64307e-22)
(25.2186 -3.36428 4.66266e-22)
(26.7092 -3.55986 -4.39916e-22)
(28.1047 -3.74206 8.81694e-22)
(29.4295 -3.91367 -8.557e-22)
(30.7044 -4.07743 0)
(31.9424 -4.23481 2.02761e-19)
(33.1319 -4.38419 5.73356e-23)
(34.2237 -4.51834 -1.8194e-19)
(35.0875 -4.62004 0)
(35.5461 -4.66485 0)
(35.6799 -4.66468 0)
(35.709 -4.64614 6.48656e-21)
(35.723 -4.62126 -7.43745e-20)
(35.7361 -4.58899 -3.78553e-23)
(35.7681 -4.5572 6.02519e-20)
(1.7457 -0.232987 -4.84794e-23)
(5.60116 -0.747942 3.51061e-24)
(10.0115 -1.33617 0)
(14.0738 -1.8781 0)
(17.2607 -2.30217 0)
(19.7867 -2.63795 3.25905e-22)
(21.879 -2.91544 0)
(23.6923 -3.15514 0)
(25.3171 -3.36929 -4.6532e-22)
(26.8101 -3.56486 1.85258e-23)
(28.2068 -3.74703 8.07322e-22)
(29.5328 -3.91856 0)
(30.8082 -4.08236 1.99763e-19)
(32.0457 -4.23961 1.60292e-21)
(33.2344 -4.38903 -1.84624e-19)
(34.3255 -4.52326 0)
(35.1873 -4.62497 0)
(35.6408 -4.66967 0)
(35.7721 -4.6701 7.03251e-21)
(35.8013 -4.65312 0)
(35.816 -4.62865 0)
(35.8295 -4.59925 -5.98169e-20)
(35.8662 -4.5732 8.5447e-20)
(1.75354 -0.232975 3.87824e-19)
(5.63527 -0.749704 7.94788e-23)
(10.0711 -1.34031 0)
(14.1496 -1.88187 0)
(17.3415 -2.30583 0)
(19.8695 -2.6408 -3.11442e-22)
(21.9661 -2.91835 2.71679e-19)
(23.7822 -3.15779 -2.41686e-19)
(25.4096 -3.37167 0)
(26.9045 -3.56738 -2.09889e-19)
(28.3026 -3.74927 4.0366e-19)
(29.6292 -3.92096 -1.95918e-19)
(30.9046 -4.08461 0)
(32.1423 -4.24211 -1.41841e-21)
(33.3307 -4.39151 2.70584e-21)
(34.4212 -4.52616 -1.66615e-19)
(35.2803 -4.6277 2.98807e-19)
(35.7282 -4.67292 -1.32249e-19)
(35.8573 -4.67377 -7.0236e-21)
(35.8863 -4.65878 -9.87778e-20)
(35.9008 -4.63573 7.80791e-20)
(35.914 -4.61132 -8.34154e-21)
(35.953 -4.58491 -1.39274e-20)
(1.76387 -0.234549 7.43993e-19)
(5.66879 -0.751829 -6.11153e-19)
(10.1241 -1.34223 5.95607e-19)
(14.2169 -1.8847 -9.67675e-19)
(17.4121 -2.30781 7.83695e-23)
(19.945 -2.64235 -1.00986e-23)
(22.0451 -2.9195 2.59935e-19)
(23.8631 -3.15856 -2.30985e-22)
(25.4929 -3.37233 2.13408e-19)
(26.9896 -3.56778 -2.01418e-19)
(28.3894 -3.74968 1.92612e-19)
(29.717 -3.92123 4.47724e-23)
(30.9934 -4.0848 -1.81639e-19)
(32.2317 -4.24239 5.83932e-23)
(33.4209 -4.39178 -2.70353e-21)
(34.5119 -4.52663 1.57501e-19)
(35.3681 -4.62794 -8.71817e-21)
(35.81 -4.67341 7.79739e-21)
(35.9373 -4.67513 -2.04507e-19)
(35.9659 -4.66067 1.20574e-22)
(35.9798 -4.63978 -1.04307e-22)
(35.9917 -4.61876 6.27264e-20)
(36.0266 -4.58992 -1.28617e-20)
(1.77922 -0.235363 -3.57304e-19)
(5.70382 -0.754988 -3.10647e-24)
(10.1745 -1.34588 1.39079e-22)
(14.2781 -1.8875 -1.10453e-22)
(17.4785 -2.31047 3.59621e-19)
(20.0155 -2.64454 1.59053e-22)
(22.1185 -2.92142 -2.48554e-19)
(23.9398 -3.16035 0)
(25.5719 -3.37378 2.04549e-19)
(27.0709 -3.56897 -1.93024e-19)
(28.4721 -3.75071 -1.85019e-19)
(29.8009 -3.9219 1.79562e-19)
(31.0784 -4.0855 -5.94536e-23)
(32.3178 -4.24272 5.76825e-23)
(33.5081 -4.39213 -1.59711e-19)
(34.5998 -4.52668 1.52942e-19)
(35.4528 -4.62767 4.31155e-21)
(35.8889 -4.67228 -1.59409e-22)
(36.015 -4.67446 -6.44402e-21)
(36.044 -4.65953 -8.51333e-20)
(36.0581 -4.63962 7.16008e-20)
(36.0702 -4.61708 -6.00567e-20)
(36.0996 -4.58216 7.52242e-20)
(1.78729 -0.235624 -3.41765e-19)
(5.72893 -0.755576 5.59396e-19)
(10.2161 -1.34771 -6.79076e-23)
(14.3286 -1.88965 4.82288e-24)
(17.5404 -2.31234 -8.57527e-23)
(20.084 -2.64701 1.33e-22)
(22.1927 -2.92344 2.37517e-19)
(24.0168 -3.16232 2.22592e-22)
(25.6509 -3.37543 -1.95323e-19)
(27.1518 -3.57059 1.84429e-19)
(28.5543 -3.75195 3.74037e-23)
(29.8849 -3.92292 -3.43789e-19)
(31.1631 -4.08634 -1.39276e-21)
(32.403 -4.24325 1.63738e-19)
(33.5942 -4.39257 -2.47819e-21)
(34.6864 -4.52688 -2.20082e-21)
(35.5356 -4.62753 0)
(35.9658 -4.67169 -7.03467e-21)
(36.0908 -4.67421 5.89248e-21)
(36.1203 -4.65983 2.26448e-22)
(36.1352 -4.6422 0)
(36.148 -4.61931 -5.74047e-20)
(36.1832 -4.58414 -2.40628e-20)
(1.79221 -0.235626 -3.2588e-19)
(5.74949 -0.756112 5.34628e-19)
(10.2645 -1.34988 6.20573e-23)
(14.3889 -1.89209 1.05333e-22)
(17.6087 -2.3143 -3.27665e-19)
(20.1551 -2.64837 2.65565e-19)
(22.2653 -2.9243 0)
(24.0918 -3.16285 -3.94791e-22)
(25.7289 -3.37568 0)
(27.2314 -3.57067 -1.76064e-19)
(28.6349 -3.75172 1.68705e-19)
(29.9663 -3.92251 1.64509e-19)
(31.2452 -4.08571 5.74385e-23)
(32.4859 -4.24261 -1.56426e-19)
(33.678 -4.39189 0)
(34.7704 -4.52641 2.19977e-21)
(35.6152 -4.62665 0)
(36.0395 -4.67065 6.7215e-21)
(36.1635 -4.67352 8.05418e-20)
(36.1937 -4.65997 -7.75422e-20)
(36.2095 -4.64419 6.53396e-20)
(36.2228 -4.6184 6.78262e-21)
(36.2574 -4.59066 -6.85891e-20)
(1.93054 -0.237697 -6.85838e-20)
(6.18171 -0.760601 0)
(10.9785 -1.35015 -1.07348e-19)
(15.2668 -1.87717 8.60155e-20)
(18.567 -2.28299 0)
(21.1708 -2.60272 -2.47406e-23)
(23.3236 -2.86679 -4.64722e-20)
(25.1852 -3.09499 4.15055e-20)
(26.8492 -3.29864 -3.84215e-20)
(28.3721 -3.4847 3.63185e-20)
(29.7917 -3.65779 -8.20873e-23)
(31.133 -3.82095 -3.40975e-20)
(32.419 -3.97677 4.63255e-22)
(33.6661 -4.12729 3.26506e-20)
(34.8614 -4.2706 -3.09959e-20)
(35.943 -4.39903 -9.94302e-22)
(36.7683 -4.49451 2.64772e-20)
(37.2008 -4.54089 0)
(37.3487 -4.54915 -2.05309e-20)
(37.3966 -4.54569 1.52857e-20)
(37.4241 -4.53306 -1.20964e-20)
(37.4391 -4.52277 2.48177e-20)
(37.4251 -4.49365 -7.19532e-21)
(1.93808 -0.237758 0)
(6.19976 -0.760113 0)
(11 -1.34897 0)
(15.2908 -1.87501 7.45713e-20)
(18.5939 -2.27964 -5.7846e-20)
(21.1999 -2.59883 4.70444e-20)
(23.353 -2.8623 -4.02272e-20)
(25.2161 -3.08995 0)
(26.8811 -3.29323 3.49633e-23)
(28.4051 -3.47904 -3.15504e-20)
(29.8253 -3.65174 3.02856e-20)
(31.1673 -3.81459 0)
(32.4547 -3.97028 -2.89475e-20)
(33.7039 -4.12073 -9.65746e-23)
(34.9012 -4.26399 -7.63769e-23)
(35.9846 -4.39245 -3.23077e-23)
(36.8128 -4.48799 2.22176e-20)
(37.2468 -4.53454 -5.63655e-22)
(37.3949 -4.54315 2.10051e-21)
(37.4438 -4.53992 0)
(37.472 -4.52793 1.39934e-21)
(37.488 -4.51806 -1.36727e-21)
(37.4809 -4.49163 0)
(1.80523 -0.236145 0)
(5.79522 -0.757431 -6.1004e-23)
(10.3471 -1.35213 2.6002e-24)
(14.5013 -1.89446 4.20801e-24)
(17.7275 -2.31555 -2.98456e-19)
(20.2781 -2.64797 4.84293e-19)
(22.3942 -2.92318 -2.06668e-19)
(24.2257 -3.16113 1.84097e-19)
(25.8664 -3.37348 2.42577e-23)
(27.3726 -3.56788 2.90589e-23)
(28.7793 -3.74878 -1.54046e-19)
(30.1123 -3.91935 5.9782e-22)
(31.3929 -4.08214 1.16763e-21)
(32.6349 -4.23911 -1.42097e-19)
(33.8279 -4.38833 1.37798e-19)
(34.9187 -4.52315 -1.92276e-21)
(35.7552 -4.62308 3.44173e-21)
(36.1702 -4.66728 9.83442e-20)
(36.2934 -4.67235 -7.86774e-20)
(36.3248 -4.66087 -4.54503e-21)
(36.3413 -4.64775 0)
(36.3537 -4.62544 -5.62591e-20)
(36.3795 -4.62078 5.21113e-20)
(1.81793 -0.237302 -1.60936e-24)
(5.82963 -0.760343 4.66916e-19)
(10.3958 -1.3551 -4.52725e-19)
(14.5522 -1.89632 3.66241e-19)
(17.7831 -2.31666 0)
(20.3376 -2.64908 -5.2515e-24)
(22.4561 -2.9238 0)
(24.2895 -3.16135 0)
(25.9311 -3.3734 0)
(27.4388 -3.56745 0)
(28.8472 -3.74818 -1.46978e-19)
(30.1815 -3.91849 1.42222e-19)
(31.4625 -4.08104 0)
(32.7049 -4.23767 -1.34588e-19)
(33.8977 -4.38659 1.29444e-19)
(34.9869 -4.52114 -1.20047e-19)
(35.8194 -4.62057 -2.48334e-22)
(36.2307 -4.66444 9.65674e-20)
(36.354 -4.66952 -8.51638e-20)
(36.3864 -4.65836 -9.01091e-23)
(36.4037 -4.64539 5.69257e-20)
(36.4166 -4.62339 6.10673e-21)
(36.4415 -4.6016 -1.02173e-20)
(1.83145 -0.238099 5.44912e-19)
(5.86449 -0.76271 6.05313e-24)
(10.445 -1.35786 -4.30947e-19)
(14.6048 -1.89864 1.70182e-22)
(17.8392 -2.31819 0)
(20.3985 -2.64988 -2.19799e-19)
(22.5201 -2.9246 -1.92203e-23)
(24.3546 -3.16163 1.67011e-19)
(25.9972 -3.3732 1.54156e-19)
(27.5055 -3.56688 -1.45648e-19)
(28.9148 -3.74721 5.33854e-22)
(30.2497 -3.91721 5.44344e-22)
(31.5312 -4.07948 0)
(32.7735 -4.23582 -4.79338e-23)
(33.9655 -4.38459 1.88374e-21)
(35.0526 -4.51879 1.16422e-19)
(35.8809 -4.6179 -1.05697e-19)
(36.2889 -4.66182 0)
(36.4122 -4.66738 2.24005e-22)
(36.4454 -4.65725 -3.95195e-21)
(36.4634 -4.64602 0)
(36.4763 -4.62474 0)
(36.4968 -4.60745 0)
(1.83347 -0.237263 0)
(5.88318 -0.762196 -4.24309e-19)
(10.4832 -1.35875 4.10654e-19)
(14.6569 -1.89872 3.31266e-19)
(17.8933 -2.31789 -2.57478e-19)
(20.4549 -2.6489 -1.04562e-22)
(22.5792 -2.92299 0)
(24.4157 -3.15962 1.59175e-19)
(26.0593 -3.37081 -1.4662e-19)
(27.5686 -3.56415 1.38588e-19)
(28.9788 -3.7443 -1.33738e-19)
(30.3146 -3.91396 1.29079e-19)
(31.5966 -4.07611 -1.26595e-19)
(32.8393 -4.23209 -4.62003e-23)
(34.0299 -4.38064 -1.88321e-21)
(35.1144 -4.51439 1.07512e-19)
(35.9389 -4.61328 -9.458e-20)
(36.3443 -4.65721 0)
(36.468 -4.66306 4.66619e-21)
(36.502 -4.65358 -6.15313e-20)
(36.5207 -4.64272 1.03594e-19)
(36.5332 -4.62071 1.05671e-22)
(36.5525 -4.60529 -3.63082e-20)
(1.83994 -0.238193 2.4652e-19)
(5.90594 -0.763116 4.04406e-19)
(10.5223 -1.35938 -3.90781e-19)
(14.703 -1.8991 7.88987e-23)
(17.9457 -2.31713 2.44946e-19)
(20.5097 -2.64769 -1.98748e-19)
(22.6336 -2.921 1.69689e-19)
(24.4716 -3.15699 -1.51297e-19)
(26.1173 -3.36803 0)
(27.6286 -3.56112 0)
(29.0398 -3.74087 0)
(30.3762 -3.91036 1.23863e-19)
(31.6584 -4.07222 5.88275e-23)
(32.9003 -4.22791 -2.35524e-19)
(34.0896 -4.37619 2.25832e-19)
(35.172 -4.50971 -2.06274e-19)
(35.9932 -4.60844 8.71166e-20)
(36.397 -4.65242 2.47097e-21)
(36.5214 -4.65884 0)
(36.5566 -4.65032 3.76051e-21)
(36.5764 -4.63977 0)
(36.5891 -4.61834 0)
(36.6093 -4.60827 -2.62065e-20)
(1.85165 -0.238559 -4.70664e-19)
(5.93005 -0.764036 3.84739e-19)
(10.5565 -1.35945 3.71638e-19)
(14.7404 -1.89807 -2.99971e-19)
(17.9879 -2.31591 -2.32893e-19)
(20.5568 -2.64602 1.89058e-19)
(22.6833 -2.91896 0)
(24.5239 -3.15476 0)
(26.1722 -3.36548 0)
(27.6844 -3.55827 1.25583e-19)
(29.0969 -3.73767 -1.20269e-19)
(30.4345 -3.90697 -4.47341e-22)
(31.7166 -4.0685 1.14856e-19)
(32.9578 -4.22397 -2.23256e-19)
(34.1453 -4.37189 1.0654e-19)
(35.2253 -4.5051 -9.89642e-20)
(36.0436 -4.60372 9.12615e-20)
(36.4467 -4.64781 -7.95624e-20)
(36.5724 -4.65473 -1.02046e-22)
(36.6087 -4.64705 5.58167e-20)
(36.6294 -4.63646 0)
(36.6423 -4.61679 3.45445e-20)
(36.6607 -4.60685 -8.38355e-21)
(1.85838 -0.238903 -1.40036e-23)
(5.95209 -0.76494 3.65521e-19)
(10.5875 -1.36028 -7.05371e-19)
(14.7815 -1.89872 5.69289e-19)
(18.0355 -2.31634 -4.4189e-19)
(20.6049 -2.64566 1.79311e-19)
(22.734 -2.91806 -1.45701e-22)
(24.5763 -3.15364 -1.366e-19)
(26.2257 -3.36388 -2.48827e-23)
(27.7388 -3.55636 -3.11614e-23)
(29.1523 -3.73547 1.1416e-19)
(30.4907 -3.90444 4.47139e-22)
(31.7731 -4.06566 -1.09114e-19)
(33.0134 -4.22063 -7.02537e-23)
(34.1987 -4.36808 -1.65505e-22)
(35.2762 -4.50073 -9.79004e-23)
(36.0922 -4.59899 -1.08583e-22)
(36.4949 -4.64331 7.31404e-20)
(36.6217 -4.65034 6.2817e-20)
(36.6591 -4.64332 -1.06226e-19)
(36.6802 -4.63306 4.45723e-20)
(36.6928 -4.61592 4.79577e-21)
(36.7073 -4.60546 7.65183e-21)
(1.87109 -0.239801 -2.5265e-23)
(5.98466 -0.767062 0)
(10.6266 -1.36125 -3.34044e-19)
(14.8275 -1.89862 5.38626e-19)
(18.0818 -2.31531 -4.18242e-19)
(20.6521 -2.64371 1.69782e-19)
(22.7834 -2.91572 1.45473e-22)
(24.6282 -3.1508 -1.29472e-19)
(26.2792 -3.36068 -2.44524e-23)
(27.7936 -3.55277 1.12933e-19)
(29.2074 -3.73148 0)
(30.5456 -3.90007 -4.0189e-22)
(31.8274 -4.06092 0)
(33.0666 -4.21554 7.64386e-22)
(34.2499 -4.36247 -1.54118e-21)
(35.3252 -4.49484 0)
(36.1394 -4.59278 -2.42436e-21)
(36.5425 -4.6372 0)
(36.6708 -4.64431 0)
(36.7091 -4.63757 0)
(36.7308 -4.62718 -4.75573e-20)
(36.7433 -4.61026 3.1141e-20)
(36.7532 -4.5936 2.21982e-20)
(1.88233 -0.240356 2.53162e-23)
(6.01408 -0.768223 0)
(10.6631 -1.36197 0)
(14.8705 -1.89855 -6.38774e-23)
(18.1286 -2.3145 0)
(20.7005 -2.64224 0)
(22.8333 -2.91353 0)
(24.6789 -3.14824 0)
(26.3309 -3.35771 1.12904e-19)
(27.8466 -3.54947 -1.06796e-19)
(29.2614 -3.72785 3.90448e-22)
(30.5994 -3.89607 7.81568e-22)
(31.8805 -4.05631 0)
(33.1177 -4.21058 -7.63858e-22)
(34.2993 -4.35686 1.38068e-21)
(35.3727 -4.48889 0)
(36.1855 -4.58647 -7.07273e-20)
(36.5896 -4.63114 6.56089e-20)
(36.7195 -4.63815 -3.42385e-21)
(36.759 -4.63195 -2.89938e-21)
(36.7816 -4.62138 4.52803e-20)
(36.7943 -4.60455 -2.92473e-20)
(36.8061 -4.58881 0)
(1.88885 -0.240448 3.81376e-19)
(6.03368 -0.768362 -6.19919e-19)
(10.6952 -1.36192 5.96492e-19)
(14.9099 -1.89789 -2.40273e-19)
(18.1741 -2.3132 -1.86483e-19)
(20.7475 -2.64016 3.02834e-19)
(22.8819 -2.91089 -1.04523e-22)
(24.7291 -3.145 2.23069e-23)
(26.3818 -3.35393 2.65597e-23)
(27.8976 -3.54521 3.30562e-23)
(29.3122 -3.72316 -9.74451e-20)
(30.6498 -3.89084 9.41383e-20)
(31.9301 -4.05073 6.14649e-23)
(33.166 -4.20457 -8.91571e-20)
(34.3458 -4.35042 -7.58399e-23)
(35.418 -4.48206 7.96984e-20)
(36.2302 -4.57951 -7.34822e-20)
(36.6358 -4.62434 6.2114e-20)
(36.7676 -4.63159 -4.97383e-20)
(36.8083 -4.62607 -4.22301e-20)
(36.8316 -4.61528 -1.18969e-22)
(36.8442 -4.59924 -1.13311e-22)
(36.8505 -4.58295 2.66086e-20)
(1.88849 -0.23959 0)
(6.0388 -0.766264 2.11971e-24)
(10.7181 -1.36066 2.81668e-19)
(14.9404 -1.89629 -2.26971e-19)
(18.2108 -2.3107 0)
(20.7886 -2.6376 1.42913e-19)
(22.9243 -2.90775 -1.21984e-19)
(24.773 -3.14126 0)
(26.4272 -3.3499 1.0068e-19)
(27.9444 -3.54079 -1.90444e-19)
(29.3589 -3.71833 9.16199e-20)
(30.6962 -3.88563 -8.91777e-20)
(31.976 -4.04524 8.71651e-20)
(33.2108 -4.19857 -6.81939e-22)
(34.3896 -4.34419 -7.50874e-23)
(35.4611 -4.47555 -7.51405e-20)
(36.2736 -4.57279 6.71369e-20)
(36.6814 -4.61798 -5.85674e-20)
(36.8153 -4.62524 5.0138e-20)
(36.8572 -4.62035 0)
(36.8812 -4.60897 0)
(36.894 -4.59372 0)
(36.9027 -4.57747 0)
(1.88784 -0.239225 1.68461e-19)
(6.04452 -0.765355 2.13827e-24)
(10.7464 -1.3607 3.12912e-23)
(14.9762 -1.89656 0)
(18.2478 -2.30996 3.9067e-23)
(20.8314 -2.63643 6.75837e-23)
(22.9677 -2.90637 0)
(24.8165 -3.13924 0)
(26.4717 -3.3475 0)
(27.9893 -3.53805 0)
(29.4046 -3.71529 0)
(30.7419 -3.88219 -8.37416e-20)
(32.0206 -4.04131 -5.41094e-23)
(33.2547 -4.19419 5.35894e-22)
(34.4331 -4.33937 7.47963e-20)
(35.5042 -4.47031 0)
(36.3172 -4.56714 -1.91045e-21)
(36.7273 -4.61257 -5.50401e-20)
(36.8633 -4.61965 4.71115e-20)
(36.9061 -4.61527 -4.00011e-20)
(36.9307 -4.60313 -1.16823e-22)
(36.9434 -4.58911 3.31573e-21)
(36.9455 -4.57114 2.93336e-20)
(1.89915 -0.240129 1.58166e-19)
(6.07364 -0.767664 9.76633e-24)
(10.7818 -1.36156 -2.70077e-23)
(15.0177 -1.89575 -1.99045e-19)
(18.2879 -2.3088 1.5452e-19)
(20.8724 -2.63427 -1.25554e-19)
(23.0122 -2.90356 1.07177e-19)
(24.8622 -3.13627 2.18099e-23)
(26.5171 -3.34391 -8.84263e-20)
(28.0344 -3.53385 0)
(29.4495 -3.71065 8.08564e-20)
(30.7863 -3.87722 -1.56468e-19)
(32.0645 -4.03578 1.53281e-19)
(33.2983 -4.18847 -7.45571e-20)
(34.4765 -4.33312 7.12425e-20)
(35.5475 -4.46381 -6.60052e-20)
(36.3614 -4.56049 3.69463e-21)
(36.7739 -4.60596 0)
(36.9116 -4.61319 2.6724e-21)
(36.9552 -4.60922 -3.97758e-20)
(36.98 -4.59627 -1.2376e-22)
(36.9925 -4.58405 2.29794e-20)
(36.9949 -4.56492 1.65647e-20)
(1.90067 -0.238997 8.68587e-24)
(6.08201 -0.765088 3.03964e-23)
(10.8005 -1.35982 2.72332e-23)
(15.0465 -1.89431 1.85806e-19)
(18.325 -2.30622 -1.44203e-19)
(20.9109 -2.63122 1.17198e-19)
(23.0531 -2.90011 1.18865e-22)
(24.9048 -3.13226 -8.9343e-20)
(26.5595 -3.33941 0)
(28.0764 -3.52898 7.81136e-20)
(29.4919 -3.70525 1.66207e-23)
(30.8284 -3.87152 -5.25293e-22)
(32.1067 -4.02968 5.74738e-23)
(33.3405 -4.18209 -4.92569e-22)
(34.5193 -4.32645 -6.64243e-20)
(35.5904 -4.45674 -6.26263e-20)
(36.4053 -4.55336 1.08548e-19)
(36.8206 -4.59902 -4.65799e-20)
(36.96 -4.60631 -5.16232e-21)
(37.0043 -4.60252 2.26169e-21)
(37.0294 -4.58888 0)
(37.0419 -4.5782 0)
(37.0385 -4.55455 5.0172e-21)
(1.90223 -0.239025 -2.47762e-23)
(6.09321 -0.765317 2.23648e-19)
(10.8312 -1.35955 -2.14922e-19)
(15.0817 -1.89244 0)
(18.3615 -2.3039 6.30341e-23)
(20.9486 -2.62834 1.08692e-19)
(23.0907 -2.89632 -9.29491e-20)
(24.9428 -3.12789 0)
(26.5992 -3.33466 0)
(28.1168 -3.52381 7.25964e-20)
(29.5319 -3.69967 -1.39993e-19)
(30.8684 -3.86535 6.82601e-20)
(32.1471 -4.02332 0)
(33.3816 -4.17531 6.47472e-20)
(34.5612 -4.31945 9.74139e-23)
(35.6331 -4.44934 -1.13718e-19)
(36.4494 -4.54582 5.12686e-20)
(36.8672 -4.5916 -1.44979e-21)
(37.0083 -4.59905 4.80683e-21)
(37.0532 -4.5952 0)
(37.0784 -4.58129 0)
(37.091 -4.57228 2.31107e-20)
(37.0875 -4.54589 -2.43314e-20)
(1.9123 -0.239024 -1.27452e-19)
(6.1218 -0.765932 2.43474e-23)
(10.8592 -1.35851 0)
(15.1104 -1.88981 -1.60053e-19)
(18.3958 -2.30061 -4.55449e-23)
(20.9848 -2.62396 -7.32047e-24)
(23.1247 -2.89109 8.61768e-20)
(24.9766 -3.12182 7.70481e-20)
(26.6345 -3.32823 -1.42347e-19)
(28.1539 -3.51705 6.73335e-20)
(29.5694 -3.69257 0)
(30.9066 -3.85783 0)