/*--------------------------------*- C++ -*----------------------------------*\
  =========                 |
  \\      /  F ield         | OpenFOAM: The Open Source CFD Toolbox
   \\    /   O peration     | Website:  https://openfoam.org
    \\  /    A nd           | Version:  10
     \\/     M anipulation  |
\*---------------------------------------------------------------------------*/
FoamFile
{
    format      ascii;
    class       volVectorField;
    location    "100";
    object      wallShearStress;
}
// * * * * * * * * * * * * * * * * * * * * * * * * * * * * * * * * * * * * * //

dimensions      [0 2 -2 0 0 0 0];

internalField   uniform (0 0 0);

boundaryField
{
    back
    {
        type            empty;
    }
    front
    {
        type            empty;
    }
    exit
    {
        type            calculated;
        value           uniform (0 0 0);
    }
    bottom
    {
        type            calculated;
        value           uniform (0 0 0);
    }
    inlet
    {
        type            calculated;
        value           uniform (0 0 0);
    }
    top
    {
        type            calculated;
        value           uniform (0 0 0);
    }
    aerofoil
    {
        type            calculated;
        value           nonuniform List<vector> 
817
(
(-2.62988 0.35386 -4.48397e-23)
(-3.68242 0.130735 -4.14479e-19)
(-3.69136 0.12814 8.33356e-19)
(-2.46031 0.351694 -2.57876e-27)
(-0.138726 -0.0245597 0)
(-2.3411 0.324322 1.40445e-22)
(-2.32093 0.322876 6.22157e-24)
(-2.55353 0.347762 -2.08717e-22)
(-2.52431 0.344583 2.18171e-22)
(-2.49213 0.341245 -2.281e-22)
(-2.45655 0.33749 2.38691e-22)
(-2.4187 0.33295 -1.22088e-22)
(-2.37994 0.329016 -5.62492e-40)
(-2.58332 0.350824 8.17775e-19)
(-2.91395 0.326719 1.37753e-40)
(-2.60675 0.352619 -9.77103e-23)
(-2.81367 0.369337 9.73649e-19)
(-2.6561 0.359687 -7.18489e-19)
(-2.67844 0.359106 8.22412e-23)
(-2.69724 0.360828 -8.2245e-23)
(-2.71683 0.362469 7.54465e-23)
(-2.7379 0.363414 -6.05514e-19)
(-2.7543 0.36655 -1.1618e-18)
(-2.76906 0.366215 5.5608e-19)
(-2.78163 0.366584 5.31895e-19)
(-2.79823 0.367704 5.08794e-19)
(-3.01981 0.371982 1.07283e-19)
(-3.02409 0.370984 -2.93874e-39)
(-2.82718 0.369856 0)
(-2.838 0.370608 5.71658e-24)
(-2.84976 0.370396 -8.47882e-19)
(-2.86407 0.370306 -8.27548e-36)
(-2.87662 0.372651 -3.85429e-19)
(-2.88741 0.371936 7.3394e-19)
(-2.89829 0.372591 2.18401e-23)
(-2.90866 0.372809 3.92745e-23)
(-2.91897 0.372628 -3.92588e-23)
(-2.92909 0.372807 -5.91406e-19)
(-2.93757 0.372522 0)
(-2.94596 0.373341 -2.62885e-19)
(-2.9545 0.373739 -2.4607e-19)
(-2.96385 0.372356 -1.35437e-23)
(-2.97401 0.373854 3.8736e-23)
(-2.98033 0.372354 1.98629e-19)
(-2.98658 0.373045 1.17549e-38)
(-2.99279 0.372281 -1.66844e-19)
(-3.00133 0.371987 1.51717e-19)
(-3.0059 0.372191 1.365e-19)
(-3.01268 0.37097 -1.46937e-39)
(-3.20258 0.345458 -2.48358e-23)
(-3.20754 0.345233 -4.1162e-19)
(-3.21204 0.344486 4.20282e-19)
(-3.21397 0.343308 2.59257e-23)
(-3.21871 0.342737 -4.38578e-19)
(-3.03109 0.370986 3.18265e-36)
(-3.03699 0.370433 6.45994e-20)
(-3.04312 0.370284 -5.09559e-20)
(-3.04895 0.36996 -3.73031e-20)
(-3.05528 0.369238 -2.47272e-20)
(-3.05957 0.369361 -1.17818e-20)
(-3.06463 0.36812 -3.67342e-40)
(-3.06867 0.36884 -2.39316e-24)
(-3.07341 0.366822 2.3905e-24)
(-3.07848 0.367277 -3.8185e-20)
(-3.08409 0.365732 -5.02197e-20)
(-3.08804 0.366443 1.46937e-39)
(-3.08949 0.364671 4.83272e-24)
(-3.09451 0.364844 1.70132e-19)
(-3.09883 0.364267 7.10387e-25)
(-3.10434 0.364313 -1.32233e-23)
(-3.10822 0.363226 6.9599e-24)
(-3.11267 0.362402 -1.66604e-23)
(-3.11739 0.361865 1.41875e-19)
(-3.11861 0.361119 -9.25103e-24)
(-3.12358 0.360235 2.66427e-23)
(-3.12886 0.360335 1.76051e-19)
(-3.13201 0.360361 1.86947e-19)
(-3.13733 0.358455 -1.43036e-35)
(-3.14181 0.358668 2.08648e-19)
(-3.1458 0.357702 -4.3808e-19)
(-3.14775 0.356545 -2.2972e-19)
(-3.15108 0.356778 2.41019e-19)
(-3.15518 0.355827 -1.17549e-38)
(-3.15905 0.355216 1.63652e-23)
(-3.16306 0.355399 -1.63578e-23)
(-3.16726 0.353955 -2.83657e-19)
(-3.17066 0.353207 -2.94184e-19)
(-3.17489 0.353286 -1.95e-23)
(-3.17679 0.35151 -1.25577e-24)
(-3.18124 0.351487 -3.24305e-19)
(-3.18258 0.350173 -3.34581e-19)
(-3.18636 0.34967 3.4495e-19)
(-3.18918 0.349198 -3.55485e-19)
(-3.19456 0.349128 -2.22168e-35)
(-3.19657 0.347621 -2.51335e-35)
(-3.20071 0.347488 0)
(-3.20037 0.345835 0)
(-3.44611 0.256978 5.73664e-19)
(-3.45215 0.255062 -5.77906e-19)
(-3.45597 0.254837 -1.06606e-22)
(-3.45751 0.252747 3.53548e-23)
(-3.46207 0.25176 -2.30914e-25)
(-3.46576 0.25018 5.92433e-19)
(-3.47237 0.24917 3.62563e-23)
(-3.47645 0.247272 -1.17549e-38)
(-3.47797 0.245588 6.02016e-19)
(-3.47838 0.243781 7.38019e-23)
(-3.22327 0.342579 -4.47358e-19)
(-3.22427 0.340865 9.11118e-19)
(-3.2267 0.340532 -9.29325e-19)
(-3.2309 0.340193 -4.73504e-19)
(-3.23225 0.338853 -9.64757e-19)
(-3.23801 0.338965 -4.91534e-19)
(-3.24144 0.337606 -2.93874e-39)
(-3.24279 0.33669 -5.0956e-19)
(-3.24805 0.336451 -1.03708e-18)
(-3.25018 0.335386 6.48676e-23)
(-3.25145 0.334209 -6.48265e-23)
(-3.25399 0.333288 5.44676e-19)
(-3.25637 0.332804 0)
(-3.26043 0.332501 3.46696e-23)
(-3.26308 0.331152 -3.46571e-23)
(-3.2637 0.330048 3.57623e-23)
(-3.26899 0.329978 -3.57774e-23)
(-3.26991 0.328355 1.13331e-38)
(-3.27215 0.327616 0)
(-3.27424 0.327297 -1.23284e-18)
(-3.27689 0.326207 1.24857e-18)
(-3.27873 0.324991 1.26625e-18)
(-3.27885 0.323911 -6.41936e-19)
(-3.28258 0.323524 3.94383e-23)
(-3.28279 0.321965 -3.75019e-39)
(-3.28763 0.321379 2.05352e-23)
(-3.28928 0.320604 -6.21286e-23)
(-3.29168 0.319471 -1.37171e-18)
(-3.29201 0.318106 4.26126e-23)
(-3.29502 0.317828 1.40576e-18)
(-3.29844 0.3167 7.10843e-19)
(-3.30309 0.316076 -7.19047e-19)
(-3.30302 0.31507 -4.46215e-23)
(-3.30584 0.313626 6.7257e-23)
(-3.31057 0.313493 -2.26142e-23)
(-3.31205 0.312223 -2.86986e-42)
(-3.31461 0.311301 4.66374e-23)
(-3.31539 0.310047 7.67902e-19)
(-3.31955 0.309433 -4.97543e-25)
(-3.3199 0.308054 -5.08259e-25)
(-3.32325 0.307338 -7.92804e-19)
(-3.32573 0.306263 1.60105e-18)
(-3.3292 0.305219 0)
(-3.33191 0.305017 4.25587e-39)
(-3.33526 0.302992 2.35099e-38)
(-3.33821 0.30259 8.33145e-19)
(-3.3402 0.301124 8.40948e-19)
(-3.34243 0.300408 8.49466e-19)
(-3.34439 0.299385 -4.70198e-38)
(-3.34645 0.298086 -8.66509e-19)
(-3.34905 0.297525 -8.74573e-19)
(-3.35201 0.296226 5.36043e-23)
(-3.35311 0.294848 -8.90227e-19)
(-3.3577 0.294025 -8.99486e-19)
(-3.35896 0.292802 9.06712e-19)
(-3.3594 0.291278 -9.14615e-19)
(-3.36256 0.29064 9.2406e-19)
(-3.36397 0.289603 -9.32922e-19)
(-3.36825 0.28867 9.41535e-19)
(-3.37152 0.287695 -5.54458e-23)
(-3.37328 0.286387 8.98042e-23)
(-3.37667 0.284919 -1.92925e-18)
(-3.37814 0.283658 5.74111e-35)
(-3.38213 0.28276 -6.01374e-23)
(-3.38412 0.2814 6.01411e-23)
(-3.38624 0.280266 -9.96485e-19)
(-3.38757 0.279286 -1.00449e-18)
(-3.3897 0.278053 1.01269e-18)
(-3.3941 0.276766 -2.04311e-18)
(-3.39915 0.275973 -1.02934e-18)
(-3.40209 0.274253 6.30624e-23)
(-3.40396 0.273318 -1.04515e-18)
(-3.40959 0.2722 1.05304e-18)
(-3.41546 0.271445 -2.12093e-18)
(-3.4167 0.269828 3.22046e-23)
(-3.41519 0.268151 1.24942e-24)
(-3.41794 0.267389 2.83937e-24)
(-3.42427 0.265919 0)
(-3.43049 0.265274 1.10113e-18)
(-3.4359 0.26372 -1.10791e-18)
(-3.43599 0.262051 -6.83828e-23)
(-3.44013 0.261054 -5.62107e-19)
(-3.44084 0.259523 5.65424e-19)
(-3.44229 0.257653 -5.69452e-19)
(-3.34152 -0.496937 -1.47384e-19)
(-3.32431 -0.506195 2.6727e-22)
(-3.2989 -0.516009 -5.06907e-19)
(-3.27619 -0.52434 -4.38651e-18)
(-3.24783 -0.532756 8.0874e-36)
(-3.22741 -0.544138 0)
(-3.199 -0.553483 0)
(-3.17586 -0.563707 5.93334e-18)
(-3.15147 -0.573279 4.40182e-18)
(-3.12117 -0.581276 -4.40447e-18)
(-3.09972 -0.595572 1.59055e-23)
(-3.07434 -0.604399 -4.40827e-18)
(-3.02843 -0.609535 4.40117e-18)
(-2.97738 -0.617638 4.39136e-18)
(-2.93854 -0.625738 2.67828e-22)
(-2.89804 -0.634459 2.65934e-22)
(-2.86988 -0.644174 -5.30009e-22)
(-2.83391 -0.657369 2.0744e-24)
(-2.80583 -0.670227 2.39319e-24)
(-2.77695 -0.681759 4.2382e-18)
(-3.48243 0.242787 -6.1063e-19)
(-3.48582 0.241194 6.14534e-19)
(-3.48829 0.239797 -3.87865e-23)
(-3.49316 0.238221 7.60324e-23)
(-3.49865 0.237172 -1.14964e-22)
(-3.50421 0.235489 3.81293e-23)
(-3.50781 0.233962 -3.90764e-23)
(-3.51315 0.232134 -6.38251e-19)
(-3.51509 0.230597 -2.33868e-25)
(-3.51733 0.22865 7.89449e-23)
(-3.52159 0.227456 -3.96279e-23)
(-3.52433 0.226123 -4.00892e-23)
(-3.52723 0.22414 -2.5868e-25)
(-3.53331 0.2223 -6.63176e-19)
(-3.53933 0.221331 4.05989e-23)
(-3.54516 0.219338 8.60958e-42)
(-3.55122 0.217355 -4.12428e-23)
(-3.55362 0.215661 6.777e-19)
(-3.55849 0.21364 6.81391e-19)
(-3.55947 0.212189 -6.85235e-19)
(-3.56302 0.210181 6.88961e-19)
(-3.56721 0.208662 -8.47963e-23)
(-3.5698 0.206588 8.47452e-23)
(-3.5737 0.204589 -6.99738e-19)
(-3.57906 0.202696 -7.03823e-19)
(-3.58177 0.200687 8.61374e-23)
(-3.58727 0.198965 -4.35349e-23)
(-3.59131 0.196872 7.14986e-19)
(-3.59462 0.194678 -7.18662e-19)
(-3.59601 0.193173 0)
(-3.59374 0.19007 -4.19225e-23)
(-3.59771 0.188893 4.44904e-23)
(-3.60864 0.186518 -7.37223e-19)
(-3.61767 0.185212 -7.40452e-19)
(-3.61938 0.182497 7.44263e-19)
(-3.62577 0.18033 -7.48416e-19)
(-3.63001 0.178475 -7.52417e-19)
(-3.63122 0.175618 4.60025e-23)
(-3.63775 0.1741 5.57327e-39)
(-3.64128 0.17151 1.18701e-34)
(-3.64488 0.169348 7.67132e-19)
(-3.64849 0.167111 -2.33717e-25)
(-3.65013 0.164612 4.71755e-23)
(-3.65356 0.162421 7.79697e-19)
(-3.65863 0.159553 -7.84145e-19)
(-3.66623 0.157781 4.66084e-35)
(-3.66936 0.154589 -1.58322e-18)
(-3.67219 0.152401 -4.86868e-23)
(-3.67407 0.149788 9.76194e-23)
(-3.67842 0.147517 -9.85291e-23)
(-3.67863 0.144699 4.9166e-23)
(-3.67931 0.142117 -4.96435e-23)
(-3.67992 0.139531 -2.62476e-25)
(-3.68038 0.136134 -4.10039e-19)
(-3.68191 0.13397 4.12547e-19)
(-3.09899 -0.364326 -1.33567e-23)
(-3.09327 -0.364733 -1.94872e-19)
(-3.08769 -0.364479 5.5813e-24)
(-3.6993 0.125524 4.18939e-19)
(-3.70269 0.122993 -4.19995e-19)
(-3.69839 0.119544 -3.61993e-35)
(-3.69748 0.116633 -8.46885e-19)
(-3.69977 0.11378 4.59177e-39)
(-3.70136 0.110709 -8.54155e-19)
(-3.70328 0.107682 4.28941e-19)
(-3.70483 0.104406 0)
(-3.70741 0.101255 -2.93874e-39)
(-3.70915 0.0981323 -4.34624e-19)
(-3.71165 0.0953075 -1.57457e-35)
(-3.71177 0.0920728 -5.36521e-23)
(-3.71079 0.0886565 5.36555e-23)
(-3.71351 0.0855991 5.87747e-39)
(-3.71904 0.0821295 4.45152e-19)
(-3.72256 0.0790942 -1.82672e-35)
(-3.72437 0.0754067 -4.49027e-19)
(-3.72566 0.0719761 -5.51233e-23)
(-3.72395 0.0681844 -2.26073e-19)
(-3.72471 0.064984 -6.14637e-36)
(-3.72629 0.0615858 -4.56364e-19)
(-3.72928 0.0581734 0)
(-3.72921 0.0543706 2.30004e-19)
(-3.72917 0.0506146 5.62729e-23)
(-3.73403 0.047016 2.32216e-19)
(-3.74127 0.0433597 0)
(-3.74213 0.039493 0)
(-3.74042 0.0355793 7.34684e-40)
(-3.74028 0.0318301 1.17667e-19)
(-3.74016 0.0279331 1.18073e-19)
(-3.74103 0.0241871 -2.86986e-42)
(-3.74359 0.0201023 1.18942e-19)
(-3.74473 0.0159061 5.96763e-20)
(-3.74742 0.0121474 -2.02038e-39)
(-3.75106 0.00778697 -6.01618e-20)
(-3.75504 0.00356133 2.29589e-41)
(-3.75659 -0.000632075 3.78564e-21)
(-3.75503 -0.00502007 1.43493e-42)
(-3.7554 -0.00907231 -9.18355e-41)
(-3.75588 -0.0136083 -1.22339e-19)
(-3.75796 -0.0178512 -9.99721e-37)
(-3.75947 -0.0222583 -1.34895e-35)
(-3.76016 -0.026815 -1.23525e-19)
(-3.76196 -0.0314381 -1.24059e-19)
(-3.76537 -0.0363492 -4.97825e-19)
(-3.76641 -0.0409425 2.7695e-25)
(-3.76567 -0.0453605 6.1231e-23)
(-3.76527 -0.0502411 -6.12287e-23)
(-3.76612 -0.0552223 -2.09141e-39)
(-3.76632 -0.0601178 -1.23077e-35)
(-3.76775 -0.0650835 5.87747e-39)
(-3.76806 -0.0701165 5.08512e-19)
(-3.76999 -0.0752006 -6.21552e-23)
(-3.76907 -0.0805361 0)
(-3.76992 -0.0856282 -5.87747e-39)
(-3.76939 -0.0907885 -1.02802e-18)
(-3.77051 -0.0961295 5.15149e-19)
(-3.76919 -0.10172 -1.03365e-18)
(-3.76917 -0.107079 2.35099e-38)
(-3.77055 -0.112428 1.03891e-18)
(-3.77102 -0.118237 0)
(-3.7699 -0.124129 -1.04442e-18)
(-3.7705 -0.129576 1.51565e-25)
(-3.76947 -0.135396 -6.39867e-23)
(-3.76918 -0.141216 -5.25734e-19)
(-3.76794 -0.147062 0)
(-3.76815 -0.153003 -6.34767e-37)
(-3.76624 -0.159228 -2.11609e-18)
(-3.76591 -0.16567 -1.0612e-18)
(-3.76489 -0.171653 -6.48816e-23)
(-3.7625 -0.178025 1.06511e-18)
(-3.76193 -0.184327 1.06752e-18)
(-3.76224 -0.191066 -1.06993e-18)
(-3.76084 -0.197574 -6.53978e-23)
(-3.75939 -0.204147 -2.14662e-18)
(-3.75955 -0.211042 -2.14993e-18)
(-3.75811 -0.218108 0)
(-3.75538 -0.224781 1.07877e-18)
(-3.75463 -0.232087 -1.31715e-22)
(-3.75031 -0.239182 6.50643e-36)
(-3.7472 -0.246251 1.32685e-22)
(-3.74387 -0.253646 -1.08885e-18)
(-3.73943 -0.260653 -6.65149e-23)
(-3.73283 -0.268297 2.18713e-18)
(-3.72968 -0.275641 -2.19417e-18)
(-3.72231 -0.283099 -1.34092e-22)
(-3.7156 -0.290666 2.2017e-18)
(-3.70585 -0.297866 -2.20556e-18)
(-3.69782 -0.305664 1.83671e-40)
(-3.68883 -0.31322 -2.21509e-18)
(-3.67851 -0.320833 2.07259e-25)
(-3.66837 -0.328704 4.44364e-18)
(-3.654 -0.336264 1.35752e-22)
(-3.64452 -0.344069 6.64502e-23)
(-3.63235 -0.351898 2.2291e-18)
(-3.62076 -0.360556 2.97095e-27)
(-3.60725 -0.368061 -2.22745e-18)
(-3.59323 -0.376421 1.08738e-18)
(-3.57669 -0.384147 1.35763e-22)
(-3.56334 -0.392263 -1.35844e-22)
(-3.54801 -0.400623 -2.22255e-18)
(-3.5309 -0.409012 4.44079e-18)
(-3.51477 -0.417251 1.35508e-22)
(-3.50089 -0.426218 2.21597e-18)
(-3.48304 -0.434902 -2.20884e-18)
(-3.46467 -0.443189 -2.20207e-18)
(-3.44864 -0.452078 5.18521e-24)
(-3.42919 -0.46124 -4.3892e-18)
(-3.40765 -0.469587 2.19396e-18)
(-3.38896 -0.47913 -1.88079e-37)
(-3.36427 -0.4877 1.17549e-38)
(-3.2687 -0.337268 -6.6367e-23)
(-3.26406 -0.338059 5.30975e-19)
(-3.25722 -0.338162 -2.35099e-38)
(-3.25489 -0.33896 -1.17549e-38)
(-3.25131 -0.34036 5.03796e-19)
(-3.24561 -0.340179 9.88723e-19)
(-3.24442 -0.341594 4.85414e-19)
(-3.24034 -0.341922 9.52839e-19)
(-3.23787 -0.342353 -2.87715e-23)
(-3.23683 -0.343989 4.57989e-19)
(-3.23228 -0.344237 4.48918e-19)
(-3.22729 -0.344778 2.64811e-23)
(-3.22524 -0.34601 -4.28972e-19)
(-3.22044 -0.346705 2.52918e-23)
(-3.2161 -0.347002 -2.52907e-23)
(-3.21304 -0.347264 7.17465e-43)
(-3.21275 -0.348794 0)
(-3.20778 -0.348885 4.9269e-35)
(-3.20518 -0.350245 3.89559e-35)
(-3.19946 -0.35031 3.60991e-19)
(-3.19619 -0.350672 1.71226e-23)
(-3.19247 -0.351222 3.40188e-19)
(-3.19065 -0.352449 3.30202e-19)
(-3.18631 -0.352518 -1.20783e-24)
(-3.18409 -0.354249 -1.98677e-23)
(-3.17938 -0.354118 3.01037e-19)
(-3.17555 -0.354885 5.81541e-19)
(-3.17119 -0.356276 -2.80757e-19)
(-3.16684 -0.356179 1.68227e-23)
(-3.16248 -0.356711 2.35099e-38)
(-3.15813 -0.357625 -4.98161e-19)
(-3.15444 -0.357372 2.38253e-19)
(-3.15238 -0.358486 4.56288e-19)
(-3.14796 -0.359405 -2.18548e-19)
(-3.14284 -0.359146 9.54869e-36)
(-3.13704 -0.360944 -1.97932e-19)
(-3.13329 -0.360881 0)
(-3.12768 -0.360773 1.42067e-23)
(-3.12208 -0.36156 -1.25391e-23)
(-3.12036 -0.362261 -1.54444e-19)
(-2.75714 -0.697324 -4.19338e-18)
(-2.74231 -0.715958 -6.71975e-24)
(-2.73909 -0.736379 -4.06753e-18)
(-2.75212 -0.765249 3.99307e-18)
(-2.78392 -0.799476 -4.22426e-34)
(-2.8332 -0.840241 -7.2327e-38)
(-2.89315 -0.889473 -9.93675e-35)
(-2.98068 -0.9469 0)
(-3.08097 -1.01904 0)
(-3.19885 -1.09629 -1.35545e-17)
(-3.31842 -1.18236 6.50914e-18)
(-3.44495 -1.27876 4.70198e-38)
(-3.57235 -1.38427 5.90157e-18)
(-3.70757 -1.50056 1.10977e-17)
(-3.84064 -1.63179 -4.13774e-35)
(-3.96954 -1.76844 4.69853e-18)
(-4.07727 -1.91503 4.19703e-18)
(-4.16836 -2.0748 -2.89115e-23)
(-4.23043 -2.22961 -2.95423e-18)
(-4.26853 -2.39634 -2.17118e-18)
(-4.27313 -2.58355 1.2188e-18)
(-4.2539 -2.78679 -6.10907e-20)
(-4.19114 -2.97048 4.06729e-23)
(-4.01626 -3.1389 -1.70024e-34)
(-3.58563 -3.13155 -5.05701e-18)
(-2.65635 -2.67154 -1.45244e-17)
(-0.189291 0.0974777 -1.29632e-20)
(2.85286 4.00047 -4.79243e-22)
(4.14266 7.0903 3.5489e-21)
(0.96421 2.41137 1.41282e-17)
(-0.579203 -2.29823 -1.06045e-17)
(-0.05969 -0.467898 2.59461e-18)
(-0.06897 0.34479 -5.34316e-27)
(-0.704562 2.8708 2.1407e-17)
(-1.6902 4.16793 1.83524e-17)
(-2.68081 4.77117 2.92957e-17)
(-3.31602 4.64205 -7.87223e-22)
(-3.52738 4.07089 8.27413e-18)
(-3.58849 3.58773 1.11654e-17)
(-3.64072 3.1876 3.31211e-18)
(-3.52088 2.76762 -1.97985e-18)
(-3.49643 2.48399 2.46739e-23)
(-3.30804 2.16423 3.82506e-19)
(-2.40676 1.43493 -2.83238e-18)
(-1.96233 1.1012 2.24423e-18)
(-2.34298 1.23347 -3.76158e-37)
(-2.75765 1.36994 -4.80685e-23)
(-3.06456 1.44048 -3.47114e-18)
(-3.24452 1.44589 -1.08773e-22)
(-3.32933 1.41464 -8.57641e-35)
(-3.35613 1.35746 -1.16306e-17)
(-3.34213 1.294 -3.63508e-22)
(-3.31279 1.22905 7.52316e-37)
(-3.27312 1.16545 -6.60837e-18)
(-3.22769 1.10581 1.36922e-17)
(-3.17347 1.04843 3.53641e-18)
(-3.11164 0.989604 -3.64091e-18)
(-3.05248 0.937714 2.24918e-22)
(-2.99642 0.888925 -3.76158e-37)
(-2.94419 0.845545 3.87696e-18)
(-2.89587 0.804739 -3.94258e-18)
(-2.85509 0.767687 4.00008e-18)
(-2.82038 0.736511 8.32282e-25)
(-2.79149 0.706317 4.10203e-18)
(-2.76621 0.679095 -4.14072e-18)
(-2.74695 0.655073 2.01375e-24)
(-2.73854 0.634735 1.88705e-24)
(-2.73536 0.615782 -5.17355e-22)
(-2.73825 0.599923 5.20732e-22)
(-2.74735 0.585519 1.76758e-24)
(-2.76142 0.572656 -2.72747e-22)
(-2.78299 0.561714 -4.07914e-34)
(-2.80493 0.551462 0)
(-2.83556 0.543061 -4.40641e-18)
(-2.86012 0.53412 4.4357e-18)
(-2.88866 0.526498 -4.45509e-18)
(-2.91782 0.517454 -8.92206e-18)
(-2.94886 0.511074 -3.76158e-37)
(-2.98538 0.503237 -2.69657e-18)
(-3.02075 0.497324 -3.14885e-23)
(-3.0558 0.489505 2.72842e-22)
(-3.08815 0.482553 2.67504e-18)
(-3.12162 0.475653 2.72448e-22)
(-3.15419 0.468723 -1.14794e-41)
(-3.18869 0.46251 0)
(-3.22277 0.455261 0)
(-3.25271 0.448916 -2.21949e-18)
(-3.28473 0.442376 4.43187e-18)
(-3.31261 0.435 -8.58639e-24)
(-3.33708 0.427736 1.98326e-18)
(-3.36583 0.420585 9.40395e-38)
(-3.39405 0.413955 7.99052e-20)
(-3.41947 0.407405 3.65672e-23)
(-3.44279 0.399254 -1.04101e-19)
(-3.468 0.393501 -5.76265e-27)
(-3.49232 0.384218 -4.42049e-18)
(-3.51576 0.37764 1.34857e-22)
(-3.54096 0.37065 -2.20604e-18)
(-3.5647 0.363934 2.20563e-18)
(-3.58715 0.356635 -1.34401e-22)
(-3.60837 0.349493 1.34424e-22)
(-3.62843 0.342473 1.10871e-41)
(-3.6485 0.335672 1.33989e-22)
(-3.66939 0.328696 -4.38482e-18)
(-3.68877 0.321554 2.56713e-25)
(-3.70576 0.314538 2.1839e-18)
(-3.7228 0.307566 4.66906e-35)
(-3.73776 0.300341 -1.36032e-22)
(-3.75502 0.293639 -2.17066e-18)
(-3.76872 0.286506 -1.3233e-22)
(-3.77995 0.279567 2.16533e-18)
(-3.78845 0.272014 -1.07991e-18)
(-3.79863 0.264864 -6.57908e-23)
(-3.80786 0.25795 1.07712e-18)
(-3.8147 0.250655 1.31287e-22)
(-3.82213 0.243751 -3.13008e-35)
(-3.82955 0.236782 -1.3043e-22)
(-3.83321 0.229516 -1.0682e-18)
(-3.8372 0.222803 -4.70198e-38)
(-3.84048 0.21569 2.12986e-18)
(-3.84121 0.208721 1.06328e-18)
(-3.84398 0.202039 -6.47892e-23)
(-3.84564 0.195405 1.06017e-18)
(-3.84564 0.188588 0)
(-3.84592 0.182131 -7.28634e-35)
(-3.84738 0.17561 -6.43246e-23)
(-3.84617 0.169284 1.05248e-18)
(-3.84471 0.162671 1.04964e-18)
(-3.84363 0.156199 1.17549e-38)
(-3.84196 0.150159 0)
(-3.84098 0.144013 5.22407e-19)
(-3.84013 0.138088 -6.36197e-23)
(-3.83911 0.131925 1.28788e-25)
(-3.83679 0.126368 1.03908e-18)
(-3.83576 0.120203 1.17549e-38)
(-3.83419 0.114333 -5.17038e-19)
(-3.83118 0.108722 -5.16096e-19)
(-3.82976 0.103231 1.02964e-18)
(-3.82978 0.097486 -5.13304e-19)
(-3.82867 0.0921427 5.12244e-19)
(-3.82921 0.086805 5.87747e-39)
(-3.82726 0.0816225 3.58732e-43)
(-3.82651 0.0760686 -6.19933e-23)
(-3.82354 0.0709211 -5.07112e-19)
(-3.8224 0.0657783 -8.81621e-39)
(-3.82032 0.0606957 2.52251e-19)
(-3.82005 0.0558753 1.46937e-39)
(-3.82005 0.0507954 -6.11711e-23)
(-3.82044 0.0459957 6.11752e-23)
(-3.82065 0.0414053 4.9924e-19)
(-3.81965 0.0367835 2.49153e-19)
(-3.81692 0.0317933 1.24063e-19)
(-3.81116 0.0271337 6.0514e-23)
(-3.80691 0.0224719 1.23253e-19)
(-3.80392 0.0180559 4.15096e-38)
(-3.80405 0.0137297 6.11857e-20)
(-3.80453 0.00917041 0)
(-3.80342 0.00504162 0)
(-3.8033 0.00062787 -3.78606e-21)
(-3.80328 -0.00365511 0)
(-3.80356 -0.00793076 6.01798e-20)
(-3.80406 -0.0123729 -4.95912e-39)
(-3.8027 -0.0161948 -5.97778e-20)
(-3.79876 -0.0204686 -1.19147e-19)
(-3.79448 -0.0245798 0)
(-3.79436 -0.0284142 -1.18167e-19)
(-3.79713 -0.0323536 -1.17741e-19)
(-3.79797 -0.0361786 -1.17342e-19)
(-3.79642 -0.0401012 3.67342e-40)
(-3.79261 -0.0440341 7.34684e-40)
(-3.78892 -0.0477601 -2.31733e-19)
(-3.78685 -0.0514533 5.61426e-23)
(-3.78688 -0.0552718 -2.2954e-19)
(-3.78697 -0.0591595 8.81621e-39)
(-3.78746 -0.0626525 4.54754e-19)
(-3.78708 -0.0661481 5.17805e-36)
(-3.78653 -0.0693644 5.48978e-23)
(-3.78657 -0.0732131 -5.49158e-23)
(-3.78413 -0.0766109 4.4704e-19)
(-3.7818 -0.0803825 4.44974e-19)
(-3.78052 -0.0835143 -1.92076e-35)
(-3.77869 -0.0871516 -4.4102e-19)
(-3.77659 -0.0902435 5.34554e-23)
(-3.7763 -0.0937194 -5.34525e-23)
(-3.77701 -0.0969526 3.58732e-43)
(-3.77844 -0.0999908 -1.08433e-35)
(-3.77841 -0.103144 8.81621e-39)
(-3.77186 -0.106245 -4.29863e-19)
(-3.76727 -0.109456 -9.08657e-36)
(-3.76581 -0.112585 4.25294e-19)
(-3.76447 -0.115711 4.23298e-19)
(-3.76137 -0.118604 4.21217e-19)
(-3.75928 -0.121431 5.64788e-39)
(-3.75826 -0.12485 4.16971e-19)
(-3.75737 -0.127472 -4.15132e-19)
(-3.75719 -0.13026 -8.26422e-19)
(-3.75543 -0.13339 4.11546e-19)
(-3.75247 -0.136471 -4.09821e-19)
(-3.74719 -0.138606 4.07685e-19)
(-3.74254 -0.141894 -8.1017e-19)
(-3.74066 -0.14449 -4.93589e-23)
(-3.73817 -0.14705 4.89024e-23)
(-3.73655 -0.149867 -7.99338e-19)
(-3.73399 -0.152278 7.95642e-19)
(-3.73199 -0.15491 -4.84468e-23)
(-3.72697 -0.157075 1.57607e-18)
(-3.72403 -0.160293 -6.28889e-35)
(-3.71713 -0.162169 7.81051e-19)
(-3.71051 -0.16494 -7.76995e-19)
(-3.70454 -0.167072 4.7026e-23)
(-3.69947 -0.169382 -2.4811e-25)
(-3.69442 -0.171629 -7.64409e-19)
(-3.69314 -0.173889 -4.08719e-35)
(-3.69367 -0.176693 -9.12213e-35)
(-3.68639 -0.178213 4.59157e-23)
(-3.68142 -0.180941 7.50937e-19)
(-3.67412 -0.182667 7.46589e-19)
(-3.66833 -0.184931 -2.44009e-25)
(-3.66782 -0.187734 7.38225e-19)
(-3.66287 -0.189363 7.35286e-19)
(-3.65722 -0.191918 4.45109e-23)
(-3.65109 -0.193163 -4.67871e-23)
(-3.64633 -0.195894 7.23471e-19)
(-3.64175 -0.197284 7.19458e-19)
(-3.63926 -0.199543 -7.15653e-19)
(-3.63684 -0.201793 -4.35943e-23)
(-3.62987 -0.203397 8.62974e-23)
(-3.62502 -0.205334 -4.98096e-25)
(-3.61705 -0.207061 7.005e-19)
(-3.61318 -0.209158 8.47799e-23)
(-3.61239 -0.211307 -8.48309e-23)
(-3.60748 -0.212839 -6.89114e-19)
(-3.60381 -0.214825 9.95431e-25)
(-3.6035 -0.216382 0)
(-3.59888 -0.218407 -6.76647e-19)
(-3.5955 -0.220114 -4.11759e-23)
(-3.59077 -0.222055 6.6854e-19)
(-3.58409 -0.224221 4.04838e-23)
(-3.5786 -0.225025 6.60811e-19)
(-3.58012 -0.227446 -1.90935e-25)
(-3.57878 -0.229274 -4.00323e-23)
(-3.57275 -0.23056 -3.96752e-23)
(-3.56379 -0.231397 7.90554e-23)
(-3.55849 -0.233207 6.43204e-19)
(-3.55437 -0.234626 6.39142e-19)
(-3.5512 -0.236649 -3.91089e-23)
(-3.54702 -0.23817 3.826e-23)
(-3.54216 -0.239963 -1.15303e-22)
(-3.53714 -0.241064 7.63286e-23)
(-3.53379 -0.24276 -6.21139e-19)
(-3.52983 -0.244089 -6.17651e-19)
(-3.52693 -0.245756 6.13829e-19)
(-3.52192 -0.246669 7.42124e-23)
(-3.52062 -0.248445 -7.41283e-23)
(-3.5181 -0.250051 0)
(-3.51428 -0.252016 3.64054e-23)
(-3.50841 -0.253084 -2.3939e-25)
(-3.50679 -0.254828 -5.91155e-19)
(-3.50212 -0.255845 3.54547e-23)
(-3.49935 -0.257878 -1.06923e-22)
(-3.49688 -0.258215 5.79264e-19)
(-3.49508 -0.260431 -4.64595e-25)
(-3.49295 -0.261266 1.14271e-18)
(-3.49079 -0.263022 -5.67763e-19)
(-3.48838 -0.264503 5.64734e-19)
(-3.48324 -0.265402 -6.86889e-23)
(-3.48175 -0.26705 1.48112e-36)
(-3.47906 -0.268772 -1.10625e-18)
(-3.47577 -0.269867 -9.40395e-38)
(-3.47098 -0.271303 1.09085e-18)
(-3.4669 -0.272112 -1.06573e-24)
(-3.46521 -0.273514 3.26563e-23)
(-3.46588 -0.275492 2.13293e-18)
(-3.46377 -0.27645 -1.05931e-18)
(-3.45802 -0.277704 1.05148e-18)
(-3.45473 -0.278404 6.33423e-23)
(-3.4525 -0.280371 2.06674e-18)
(-3.45028 -0.281334 -5.0962e-25)
(-3.44731 -0.282871 -3.23331e-23)
(-3.44441 -0.284027 1.00897e-18)
(-3.44159 -0.284989 1.00066e-18)
(-3.43787 -0.286017 6.03154e-23)
(-3.4359 -0.287454 -6.03093e-23)
(-3.43028 -0.288174 -4.57032e-35)
(-3.42816 -0.289348 1.93063e-18)
(-3.4243 -0.290845 8.50541e-23)
(-3.42492 -0.292311 -6.02628e-23)
(-3.42269 -0.293413 -9.41758e-19)
(-3.41833 -0.294327 9.33505e-19)
(-3.41532 -0.295264 -9.24623e-19)
(-3.41207 -0.295793 9.1486e-19)
(-3.41219 -0.297392 5.69791e-23)
(-3.41182 -0.298591 9.01143e-19)
(-3.40607 -0.299326 8.93667e-19)
(-3.40248 -0.30047 5.38552e-23)
(-3.39771 -0.3016 8.78763e-19)
(-3.39326 -0.302086 8.71193e-19)
(-3.39036 -0.303298 0)
(-3.38735 -0.304366 -8.54161e-19)
(-3.38457 -0.305059 -8.45443e-19)
(-3.38269 -0.30668 -8.37495e-19)
(-3.38076 -0.307152 0)
(-3.37789 -0.309275 1.41753e-38)
(-3.37492 -0.309486 0)
(-3.37145 -0.310563 -1.61027e-18)
(-3.36894 -0.311631 7.9768e-19)
(-3.36551 -0.312355 -7.89069e-19)
(-3.36509 -0.313758 -4.95442e-25)
(-3.36048 -0.314334 -7.73218e-19)
(-3.35876 -0.315533 4.69431e-23)
(-3.35562 -0.316423 -4.87876e-41)
(-3.35301 -0.31762 -2.27265e-23)
(-3.34804 -0.31764 6.75631e-23)
(-3.34525 -0.319149 -4.48165e-23)
(-3.34503 -0.320043 7.22025e-19)
(-3.3408 -0.320707 -7.13846e-19)
(-3.3378 -0.321812 -1.41256e-18)
(-3.33424 -0.322058 4.28397e-23)
(-3.33347 -0.323393 1.3809e-18)
(-3.33091 -0.324495 -6.2613e-23)
(-3.32702 -0.325169 2.0713e-23)
(-3.32091 -0.325637 -4.83858e-39)
(-3.31965 -0.327133 3.98354e-23)
(-3.31423 -0.327359 6.48546e-19)
(-3.31231 -0.32832 -1.28007e-18)
(-3.30941 -0.329466 -1.26298e-18)
(-3.3049 -0.329827 1.2468e-18)
(-3.30225 -0.330893 4.70198e-38)
(-3.29847 -0.331196 6.19172e-39)
(-3.29632 -0.332732 -3.63521e-23)
(-3.28952 -0.332648 3.63369e-23)
(-3.28736 -0.333606 -3.5322e-23)
(-3.28297 -0.334755 3.53348e-23)
(-3.27721 -0.334899 0)
(-3.27384 -0.335311 -5.56482e-19)
(-3.27088 -0.336201 6.63249e-23)
(-3.1149 -0.362686 -1.43755e-19)
(-3.10999 -0.363476 7.73887e-24)
(-3.10543 -0.364447 -7.12581e-25)
(-3.08553 -0.366165 0)
(-3.08134 -0.365418 6.21998e-20)
(-3.07518 -0.366911 4.98783e-20)
(-3.07043 -0.366505 3.79208e-24)
(-3.06526 -0.368467 -3.79567e-24)
(-3.06104 -0.367733 2.29589e-41)
(-3.05581 -0.368949 5.886e-22)
(-3.05163 -0.368841 1.34204e-20)
(-3.04517 -0.369534 2.59027e-20)
(-3.03939 -0.369856 3.91066e-20)
(-3.0325 -0.369909 -5.24132e-20)
(-3.02614 -0.370386 -6.63749e-20)
(-3.01977 -0.370468 7.34684e-40)
(-3.01569 -0.371481 -9.37351e-20)
(-3.00806 -0.370428 2.93874e-39)
(-2.99989 -0.371448 1.12104e-44)
(-2.99472 -0.371215 -4.1149e-24)
(-2.98671 -0.371564 1.51214e-19)
(-2.98116 -0.372388 5.06638e-36)
(-2.97523 -0.371752 -1.81196e-19)
(-2.96842 -0.37318 3.54645e-23)
(-2.95835 -0.371679 -1.24427e-23)
(-2.94984 -0.37317 2.28175e-19)
(-2.94247 -0.372915 2.45099e-19)
(-2.93531 -0.372238 0)
(-2.92791 -0.372658 5.5655e-19)
(-2.91876 -0.372593 -3.71833e-23)
(-2.90887 -0.37283 3.7198e-23)
(-2.89885 -0.372697 2.08779e-23)
(-2.88817 -0.37203 -3.5181e-19)
(-2.87937 -0.373044 3.7104e-19)
(-2.86856 -0.370845 6.06555e-36)
(-2.85535 -0.37113 8.2068e-19)
(-2.8437 -0.371355 -6.0012e-24)
(-2.83303 -0.370626 0)
(-2.81995 -0.370158 -9.51541e-19)
(-2.80511 -0.36861 -4.98447e-19)
(-2.78687 -0.367234 -5.22177e-19)
(-2.77234 -0.36666 -6.53324e-23)
(-2.75613 -0.366876 1.14864e-18)
(-2.7395 -0.363589 -7.50011e-23)
(-2.72093 -0.363002 7.49299e-23)
(-2.70429 -0.361771 -8.18081e-23)
(-2.68458 -0.35992 -6.84421e-19)
(-2.65902 -0.360177 7.16202e-19)
(-2.63201 -0.35413 -4.47439e-23)
(-2.60653 -0.352594 7.83221e-19)
(-2.57789 -0.35009 -8.18953e-19)
(-2.54468 -0.346561 4.82955e-24)
(-2.51414 -0.343158 -2.19338e-22)
(-2.48261 -0.339976 2.29422e-22)
(-2.44575 -0.335948 -2.40046e-22)
(-2.40621 -0.331227 1.22767e-22)
(-2.3638 -0.326664 -4.70198e-38)
(-2.32399 -0.321954 -1.12996e-18)
(-2.30234 -0.320151 2.88584e-22)
(-2.46559 -0.353776 3.55907e-26)
(-2.85276 -0.31561 5.18676e-24)
)
;
    }
}


// ************************************************************************* //
