# Wall shear stress
# Time        	patch         	min           	max           
4.500000e+02	aerofoil	(-5.313354e+00 -7.714500e+00 -4.363650e-17)	(1.257562e+00 1.323662e+00 5.488333e-17)
