# Wall shear stress
# Time        	patch         	min           	max           
1.500000e+02	aerofoil	(-4.564629e+00 -5.450477e+00 -3.215803e-17)	(6.306926e-01 8.897114e-01 3.377930e-17)
