/*--------------------------------*- C++ -*----------------------------------*\
  =========                 |
  \\      /  F ield         | OpenFOAM: The Open Source CFD Toolbox
   \\    /   O peration     | Website:  https://openfoam.org
    \\  /    A nd           | Version:  10
     \\/     M anipulation  |
\*---------------------------------------------------------------------------*/
FoamFile
{
    format      ascii;
    class       volVectorField;
    location    "0";
    object      wallShearStress;
}
// * * * * * * * * * * * * * * * * * * * * * * * * * * * * * * * * * * * * * //

dimensions      [0 2 -2 0 0 0 0];

internalField   uniform (0 0 0);

boundaryField
{
    back
    {
        type            empty;
    }
    front
    {
        type            empty;
    }
    exit
    {
        type            calculated;
        value           uniform (0 0 0);
    }
    bottom
    {
        type            calculated;
        value           uniform (0 0 0);
    }
    inlet
    {
        type            calculated;
        value           uniform (0 0 0);
    }
    top
    {
        type            calculated;
        value           uniform (0 0 0);
    }
    aerofoil
    {
        type            calculated;
        value           nonuniform List<vector> 
817
(
(-62.8434 -2.76393 -0)
(-62.4142 -0.736674 -0)
(-62.3544 -0.719409 -3.81157e-21)
(-62.6899 -2.84524 -0)
(-83.2 0 0)
(-62.7008 -2.82738 -0)
(-62.7032 -2.83733 -0)
(-62.6742 -2.78001 -0)
(-62.6757 -2.78634 -0)
(-62.6623 -2.79491 -0)
(-62.6641 -2.8025 -0)
(-62.6814 -2.81055 -0)
(-62.6839 -2.82082 -0)
(-62.6568 -2.77109 -0)
(-63.36 -2.88292 -0)
(-62.639 -2.76023 -0)
(-62.9982 -2.69185 5.75083e-20)
(-62.8334 -2.75488 -5.88786e-20)
(-62.6183 -2.73659 -0)
(-62.6167 -2.72922 -0)
(-62.6153 -2.72273 -0)
(-62.816 -2.7235 -5.82079e-20)
(-62.8214 -2.71387 -5.79786e-20)
(-62.6101 -2.69871 5.76781e-20)
(-62.6085 -2.691 -0)
(-62.8072 -2.69301 -0)
(-62.8805 -2.5268 5.39387e-20)
(-62.7225 -2.51393 -0)
(-62.9954 -2.68406 -0)
(-62.793 -2.66825 -5.6981e-20)
(-62.5855 -2.65353 -5.66896e-20)
(-62.8275 -2.65589 -0)
(-62.8803 -2.64919 -5.6574e-20)
(-62.7144 -2.63532 5.63006e-20)
(-62.721 -2.62906 -0)
(-62.5159 -2.61259 -0)
(-62.3607 -2.59903 -0)
(-62.3592 -2.59111 -5.53337e-20)
(-62.5493 -2.59192 -0)
(-62.7486 -2.59384 -5.5392e-20)
(-62.554 -2.57849 -0)
(-62.6988 -2.57834 -0)
(-62.8611 -2.57608 -0)
(-62.6602 -2.55993 5.46459e-20)
(-62.504 -2.54724 -0)
(-62.349 -2.53462 -0)
(-62.502 -2.53452 5.41033e-20)
(-62.5005 -2.52656 5.39334e-20)
(-62.6862 -2.52772 -0)
(-62.64 -2.21746 -0)
(-62.6387 -2.21186 -0)
(-62.6369 -2.20451 -0)
(-62.6352 -2.19723 -0)
(-62.7899 -2.19702 -0)
(-62.6901 -2.50707 -0)
(-62.68 -2.4997 -0)
(-62.7162 -2.49382 -0)
(-62.7139 -2.48658 -5.30587e-20)
(-62.8677 -2.48551 -0)
(-62.8654 -2.47825 -5.28808e-20)
(-62.8638 -2.4726 -0)
(-62.6779 -2.45718 -0)
(-62.5137 -2.44535 -0)
(-62.6757 -2.44438 5.21371e-20)
(-62.8215 -2.44304 -0)
(-62.8528 -2.43612 -0)
(-62.8512 -2.43047 -0)
(-63.0063 -2.43007 -5.18318e-20)
(-63.0044 -2.42359 -0)
(-62.8453 -2.41028 -0)
(-62.6875 -2.39785 -0)
(-62.6638 -2.38884 -0)
(-62.6541 -2.38222 -5.08114e-20)
(-62.6612 -2.37598 -5.06579e-20)
(-62.8075 -2.37606 5.06799e-20)
(-62.9909 -2.37566 -5.06509e-20)
(-62.6564 -2.35586 -0)
(-62.4741 -2.34344 -0)
(-62.473 -2.33544 -0)
(-62.3182 -2.32329 4.95344e-20)
(-62.4882 -2.32326 4.95337e-20)
(-62.6672 -2.32431 -4.95562e-20)
(-62.8214 -2.32362 -0)
(-62.9764 -2.32202 -0)
(-62.8177 -2.30986 -0)
(-62.6599 -2.29676 4.8949e-20)
(-62.658 -2.28949 4.87941e-20)
(-62.4878 -2.27688 -0)
(-62.3116 -2.26409 -0)
(-62.311 -2.2585 -0)
(-62.3103 -2.2513 4.79803e-20)
(-62.4751 -2.25167 -0)
(-62.6481 -2.25069 4.79672e-20)
(-62.6465 -2.24422 -0)
(-62.6445 -2.23606 -0)
(-62.6432 -2.23047 -0)
(-62.6414 -2.22312 -0)
(-62.3791 -1.53726 -0)
(-62.4893 -1.5318 1.62706e-20)
(-62.4961 -1.52155 -0)
(-62.3315 -1.50917 -0)
(-62.4472 -1.50215 -0)
(-62.445 -1.4917 -1.58383e-20)
(-62.3357 -1.47929 -0)
(-62.2201 -1.46595 -0)
(-62.2195 -1.45533 -0)
(-62.3738 -1.44995 -0)
(-62.7879 -2.1889 -0)
(-62.6303 -2.17613 -4.63409e-20)
(-62.629 -2.17051 4.62397e-20)
(-62.6277 -2.16484 4.61189e-20)
(-62.6261 -2.15751 4.59442e-20)
(-62.6248 -2.15187 -0)
(-62.623 -2.14373 -0)
(-62.6215 -2.13725 4.55129e-20)
(-62.6201 -2.13077 4.53749e-20)
(-62.4622 -2.11737 -0)
(-62.2984 -2.10621 -0)
(-62.4522 -2.10499 -0)
(-62.6144 -2.10401 -0)
(-62.613 -2.09752 -0)
(-62.6115 -2.09022 -0)
(-62.61 -2.08291 -0)
(-62.6088 -2.07724 -0)
(-62.607 -2.06831 -0)
(-62.7579 -2.06764 -0)
(-62.7642 -2.06057 4.38624e-20)
(-62.6032 -2.04964 -4.36297e-20)
(-62.6018 -2.04233 -4.34741e-20)
(-62.6004 -2.03502 -0)
(-62.5993 -2.02934 -0)
(-62.5977 -2.02122 -0)
(-62.7448 -2.01949 -0)
(-62.7508 -2.0108 -0)
(-62.5937 -2.00009 4.25749e-20)
(-62.5922 -1.99199 -0)
(-62.5913 -1.98708 -4.22981e-20)
(-62.5899 -1.97898 -4.21087e-20)
(-62.5887 -1.97248 -0)
(-62.4317 -1.95947 -0)
(-62.5739 -1.95823 -0)
(-62.881 -1.95975 -0)
(-62.7344 -1.94631 -0)
(-62.5823 -1.93588 -0)
(-62.5811 -1.92855 -4.10357e-20)
(-62.58 -1.92204 -0)
(-62.5787 -1.91396 -0)
(-62.5776 -1.90739 -0)
(-62.5763 -1.89931 -4.03972e-20)
(-62.7142 -1.89693 -0)
(-62.564 -1.88354 -0)
(-62.4172 -1.87184 -0)
(-62.4159 -1.86372 -0)
(-62.415 -1.85722 -0)
(-62.5694 -1.85451 -3.94443e-20)
(-62.5683 -1.84717 -0)
(-62.7021 -1.84381 -0)
(-62.7085 -1.83513 3.90166e-20)
(-62.565 -1.82435 -0)
(-62.5637 -1.81547 -0)
(-62.5627 -1.80803 -0)
(-62.4058 -1.79387 -0)
(-62.405 -1.78737 -0)
(-62.6904 -1.78891 -0)
(-62.8277 -1.78396 -0)
(-62.8256 -1.77656 -0)
(-62.6662 -1.76308 -3.74847e-20)
(-62.3804 -1.74705 -3.7129e-20)
(-62.3989 -1.74014 3.69969e-20)
(-62.5534 -1.7355 -0)
(-62.5523 -1.72664 -0)
(-62.5514 -1.71834 -0)
(-62.5504 -1.71031 -0)
(-62.518 -1.70195 -0)
(-62.5249 -1.69414 -3.60044e-20)
(-62.5477 -1.68579 3.5827e-20)
(-62.3911 -1.67263 3.55472e-20)
(-62.3903 -1.66447 -0)
(-62.545 -1.65963 -0)
(-62.6646 -1.65381 -0)
(-62.6347 -1.64322 3.49222e-20)
(-62.5138 -1.63206 3.46711e-20)
(-62.6601 -1.62752 3.45887e-20)
(-62.667 -1.61888 -3.43912e-20)
(-62.6572 -1.61027 -0)
(-62.664 -1.6008 -3.40072e-20)
(-62.5385 -1.58861 3.37481e-20)
(-62.5377 -1.57878 -0)
(-62.537 -1.56978 -0)
(-62.3804 -1.55524 -0)
(-62.3799 -1.54707 -0)
(-62.768 3.01988 -6.46728e-20)
(-62.9453 3.10018 0)
(-63.1263 3.18432 -6.82772e-20)
(-62.9964 3.25291 0)
(-62.8701 3.32384 0)
(-62.9766 3.40828 0)
(-63.0573 3.49351 0)
(-63.034 3.57483 1.53818e-19)
(-63.1662 3.66773 1.57937e-19)
(-63.1441 3.75554 -1.61863e-19)
(-63.1214 3.84337 1.6579e-19)
(-63.2554 3.94525 -1.70352e-19)
(-63.2338 4.03791 1.74531e-19)
(-63.1818 4.13404 1.78883e-19)
(-63.3173 4.24404 0)
(-63.3329 4.35042 0)
(-63.3167 4.45607 0)
(-63.4574 4.57735 0)
(-63.4088 4.68878 0)
(-63.5158 4.81587 0)
(-62.529 -1.44372 -0)
(-62.5286 -1.43387 -1.52243e-20)
(-62.4751 -1.42199 1.50981e-20)
(-62.5847 -1.41545 -0)
(-62.6373 -1.40539 -0)
(-62.4715 -1.39074 -0)
(-62.3232 -1.37626 -0)
(-62.3138 -1.36595 1.45032e-20)
(-62.4185 -1.35623 -0)
(-62.5726 -1.34971 -0)
(-62.7276 -1.34233 -0)
(-62.5689 -1.32824 -0)
(-62.4113 -1.31423 -0)
(-62.5653 -1.30677 1.38693e-20)
(-62.5632 -1.29438 -0)
(-62.3137 -1.27805 -0)
(-62.3044 -1.26607 -0)
(-62.3117 -1.25341 -1.32976e-20)
(-62.4578 -1.24615 -0)
(-62.5541 -1.23522 1.31046e-20)
(-62.5526 -1.2253 -0)
(-62.6201 -1.21425 -0)
(-62.4548 -1.19917 -0)
(-62.4624 -1.18766 1.2595e-20)
(-62.5251 -1.17613 -0)
(-62.4525 -1.16159 -0)
(-62.3867 -1.14801 -0)
(-62.385 -1.13481 -1.20393e-20)
(-62.5394 -1.12561 1.19369e-20)
(-62.5378 -1.11281 -0)
(-62.5364 -1.10079 1.16737e-20)
(-62.5349 -1.08755 -0)
(-62.5336 -1.07556 -0)
(-62.532 -1.06106 1.12524e-20)
(-62.3749 -1.0452 -1.10842e-20)
(-62.5294 -1.03456 1.09714e-20)
(-62.5279 -1.01965 1.08133e-20)
(-62.3707 -1.00266 -0)
(-62.3696 -0.990666 -0)
(-62.3684 -0.976613 -0)
(-62.3673 -0.963002 -0)
(-62.3662 -0.949329 -0)
(-62.3651 -0.934897 -0)
(-62.364 -0.921209 -9.76931e-21)
(-62.5188 -0.908221 9.62772e-21)
(-62.5177 -0.892467 -0)
(-62.3609 -0.874526 9.27053e-21)
(-62.3601 -0.860461 -0)
(-62.3593 -0.845566 -0)
(-62.3585 -0.831497 8.81439e-21)
(-62.3578 -0.81577 -0)
(-62.3571 -0.800868 -0)
(-62.3565 -0.78565 -0)
(-62.5117 -0.771325 -0)
(-62.5639 -0.755354 -4.00361e-21)
(-63.0044 2.42359 0)
(-63.0063 2.43007 5.18318e-20)
(-62.8512 2.43047 0)
(-62.4027 -0.7045 -3.73408e-21)
(-62.4095 -0.688544 -0)
(-62.3535 -0.671357 -0)
(-62.3534 -0.654782 3.46916e-21)
(-62.3533 -0.638205 -0)
(-62.3533 -0.620795 3.2891e-21)
(-62.3533 -0.603384 -0)
(-62.3534 -0.58514 -0)
(-62.3536 -0.566893 -0)
(-62.391 -0.549799 -0)
(-62.4341 -0.532732 -0)
(-62.3974 -0.514772 -0)
(-62.3883 -0.49663 -0)
(-62.3958 -0.478222 -0)
(-62.3868 -0.459235 -2.43312e-21)
(-62.3945 -0.440833 -0)
(-62.3856 -0.421001 -0)
(-62.3934 -0.400943 -0)
(-62.3603 -0.380796 1.00836e-21)
(-62.3845 -0.362805 -0)
(-62.4141 -0.342875 9.07945e-22)
(-62.4126 -0.323738 -0)
(-62.3925 -0.302847 -8.0195e-22)
(-62.3672 -0.282775 -0)
(-62.3844 -0.262169 -6.94511e-22)
(-62.407 -0.240528 -0)
(-62.4058 -0.218891 -0)
(-62.4047 -0.197254 -0)
(-62.4037 -0.176448 -2.33621e-22)
(-62.4029 -0.15481 -0)
(-62.4022 -0.134003 -0)
(-62.3973 -0.111479 -1.47541e-22)
(-62.3902 -0.0882113 -0)
(-62.4005 -0.0665863 -0)
(-62.4002 -0.0424489 1.40508e-23)
(-62.4 -0.0191436 -0)
(-62.4 0.00416166 1.72191e-25)
(-62.4001 0.0282993 0)
(-62.4003 0.0507722 0)
(-62.4007 0.0757418 -5.01418e-23)
(-62.4012 0.0990465 0)
(-62.3884 0.123989 0)
(-62.3802 0.149762 -1.98288e-22)
(-62.3947 0.174689 0)
(-62.4049 0.201415 -5.33355e-22)
(-62.385 0.227227 6.01947e-22)
(-62.3698 0.252026 0)
(-62.3675 0.27862 0)
(-62.3925 0.305342 0)
(-62.4133 0.332059 0)
(-62.4155 0.359514 0)
(-62.3848 0.387748 1.02718e-21)
(-62.3937 0.415072 0)
(-62.3863 0.445106 0)
(-62.3956 0.472406 0)
(-62.3885 0.501615 -2.65765e-21)
(-62.3982 0.530552 0)
(-62.4378 0.561013 -2.97235e-21)
(-62.442 0.590954 0)
(-62.4464 0.620892 3.28961e-21)
(-62.4512 0.652489 0)
(-62.557 0.685458 -3.63314e-21)
(-62.6671 0.718023 0)
(-62.5716 0.749331 0)
(-62.4105 0.779188 -4.12995e-21)
(-62.3575 0.810803 0)
(-62.3592 0.843911 0)
(-62.3611 0.877835 -9.3056e-21)
(-62.5192 0.914024 0)
(-62.5219 0.950043 0)
(-62.3689 0.982008 1.04099e-20)
(-62.3721 1.01711 0)
(-62.5314 1.05526 -1.11909e-20)
(-62.5356 1.09295 0)
(-62.384 1.1261 -1.19422e-20)
(-62.3887 1.16369 -1.23458e-20)
(-62.394 1.20246 0)
(-62.3023 1.23894 0)
(-62.3137 1.27805 0)
(-62.4122 1.31999 0)
(-62.4684 1.36113 0)
(-62.6373 1.40539 0)
(-62.5908 1.44679 0)
(-62.5992 1.488 1.57991e-20)
(-62.7654 1.53528 -1.63076e-20)
(-62.6186 1.57592 0)
(-62.5028 1.61609 0)
(-62.3898 1.65876 0)
(-62.3944 1.70279 0)
(-62.5557 1.75428 -3.72975e-20)
(-62.5617 1.80079 0)
(-62.5686 1.84962 3.93403e-20)
(-62.5761 1.89843 0)
(-62.7356 1.95121 0)
(-62.7405 2.00316 4.26403e-20)
(-62.6032 2.04964 0)
(-62.614 2.10239 0)
(-62.4586 2.14937 4.57894e-20)
(-62.4752 2.20362 0)
(-62.6315 2.26371 0)
(-62.6502 2.32038 0)
(-62.6825 2.38011 5.07663e-20)
(-62.8549 2.44339 0)
(-62.8734 2.50406 5.34315e-20)
(-62.5391 2.55202 -5.4499e-20)
(-62.3617 2.60458 -5.56213e-20)
(-62.5281 2.67389 5.71245e-20)
(-62.5425 2.73985 -5.85574e-20)
(-62.5577 2.806 0)
(-62.7294 2.88014 0)
(-62.7481 2.95024 0)
(-62.4622 2.11737 0)
(-62.6201 2.13077 0)
(-62.6215 2.13725 0)
(-62.623 2.14373 0)
(-62.6248 2.15187 0)
(-62.6261 2.15751 -4.59442e-20)
(-62.6277 2.16484 -4.61189e-20)
(-62.629 2.17051 -4.62397e-20)
(-62.6303 2.17613 0)
(-62.7879 2.1889 0)
(-62.7899 2.19702 0)
(-62.6352 2.19723 0)
(-62.6369 2.20451 0)
(-62.6387 2.21186 0)
(-62.64 2.21746 0)
(-62.6414 2.22312 0)
(-62.6432 2.23047 0)
(-62.6445 2.23606 0)
(-62.6465 2.24422 0)
(-62.6481 2.25069 -4.79672e-20)
(-62.4751 2.25167 -4.7988e-20)
(-62.3103 2.2513 -4.79803e-20)
(-62.311 2.2585 0)
(-62.3116 2.26409 0)
(-62.4878 2.27688 0)
(-62.658 2.28949 -4.87941e-20)
(-62.6599 2.29676 -4.8949e-20)
(-62.8177 2.30986 0)
(-62.9764 2.32202 0)
(-62.8214 2.32362 0)
(-62.6672 2.32431 4.95562e-20)
(-62.4882 2.32326 -4.95337e-20)
(-62.3182 2.32329 -4.95344e-20)
(-62.473 2.33544 0)
(-62.4741 2.34344 0)
(-62.6564 2.35586 0)
(-62.9909 2.37566 0)
(-62.8075 2.37606 -5.06799e-20)
(-62.6612 2.37598 5.06579e-20)
(-62.6541 2.38222 5.08114e-20)
(-63.7777 4.95961 0)
(-63.8466 5.0935 2.23034e-19)
(-63.9556 5.23372 0)
(-64.0678 5.38188 2.36659e-19)
(-64.029 5.52202 0)
(-64.1477 5.68154 0)
(-64.2244 5.84296 0)
(-64.3527 6.01525 0)
(-64.4387 6.19255 0)
(-64.4784 6.37098 -5.70688e-19)
(-64.7285 6.57864 0)
(-64.931 6.78983 0)
(-65.0841 7.00565 6.36642e-19)
(-65.3049 7.23743 6.61709e-19)
(-65.4751 7.47212 0)
(-65.7441 7.72703 7.16967e-19)
(-66.1773 8.01194 0)
(-66.4795 8.28753 7.84302e-19)
(-66.7962 8.57098 0)
(-67.4274 8.8975 0)
(-68.1513 9.23431 9.14398e-19)
(-68.5797 9.51836 0)
(-69.2319 9.80436 0)
(-70.3107 10.099 0)
(-71.4733 10.3156 1.16236e-18)
(-72.7063 10.3914 1.24343e-18)
(-74.3547 10.2837 0)
(-76.3259 9.8445 0)
(-78.3691 8.86935 -1.54184e-18)
(-80.4853 7.19687 0)
(-82.2791 4.726 0)
(-83.307 1.65166 0)
(-83.3088 -1.6517 0)
(-82.2863 -4.72642 0)
(-80.5002 -7.19822 -1.64091e-18)
(-78.3883 -8.8715 -1.54221e-18)
(-76.3213 -9.84395 0)
(-74.3407 -10.2817 0)
(-72.7063 -10.3914 -1.24343e-18)
(-71.4615 -10.3139 -1.16216e-18)
(-70.4392 -10.1176 1.08975e-18)
(-69.5144 -9.84437 0)
(-68.7227 -9.53803 0)
(-68.1513 -9.23431 -9.14398e-19)
(-67.4274 -8.8975 0)
(-66.7962 -8.57098 0)
(-66.4795 -8.28753 0)
(-66.1773 -8.01194 0)
(-65.7441 -7.72703 -7.16967e-19)
(-65.4751 -7.47212 0)
(-65.3049 -7.23743 -6.61709e-19)
(-65.0841 -7.00565 0)
(-64.931 -6.78983 0)
(-64.7285 -6.57864 0)
(-64.4784 -6.37098 5.70688e-19)
(-64.3886 -6.18753 2.76065e-19)
(-64.3521 -6.01538 0)
(-64.2721 -5.8473 0)
(-64.1477 -5.68154 0)
(-64.0728 -5.5258 2.43575e-19)
(-64.1113 -5.38553 -2.3682e-19)
(-63.9556 -5.23372 0)
(-63.8466 -5.0935 -2.23034e-19)
(-63.7777 -4.95961 0)
(-63.5158 -4.81587 0)
(-63.4088 -4.68878 0)
(-63.4574 -4.57735 0)
(-63.3167 -4.45607 0)
(-63.1788 -4.33983 0)
(-63.1955 -4.23588 0)
(-63.2143 -4.13617 -1.78975e-19)
(-63.2028 -4.03578 0)
(-63.1943 -3.94144 0)
(-63.0914 -3.84169 -1.65725e-19)
(-63.1441 -3.75554 1.61863e-19)
(-63.1662 -3.66773 -1.57937e-19)
(-63.034 -3.57483 -1.53818e-19)
(-63.0308 -3.49191 0)
(-62.9501 -3.40698 -1.46405e-19)
(-62.8701 -3.32384 -1.42711e-19)
(-62.9964 -3.25291 0)
(-63.1263 -3.18432 6.82772e-20)
(-62.9453 -3.10018 0)
(-62.768 -3.01988 0)
(-62.7481 -2.95024 0)
(-62.7294 -2.88014 0)
(-62.5577 -2.806 0)
(-62.5425 -2.73985 5.85574e-20)
(-62.5281 -2.67389 -5.71245e-20)
(-62.3617 -2.60458 5.56213e-20)
(-62.3505 -2.54334 0)
(-62.5242 -2.49112 5.31768e-20)
(-62.699 -2.43733 5.19867e-20)
(-62.6825 -2.38011 -5.07663e-20)
(-62.4948 -2.31463 0)
(-62.4762 -2.2581 -4.81251e-20)
(-62.4752 -2.20362 0)
(-62.4586 -2.14937 -4.57894e-20)
(-62.614 -2.10239 0)
(-62.6032 -2.04964 0)
(-62.5933 -1.99768 0)
(-62.5843 -1.94727 0)
(-62.5761 -1.89843 0)
(-62.5686 -1.84962 -3.93403e-20)
(-62.5617 -1.80079 0)
(-62.5557 -1.75428 3.72975e-20)
(-62.3944 -1.70279 0)
(-62.3898 -1.65876 -3.52526e-20)
(-62.5028 -1.61609 0)
(-62.6186 -1.57592 0)
(-62.6085 -1.53145 1.62669e-20)
(-62.4434 -1.4843 0)
(-62.5908 -1.44679 0)
(-62.6373 -1.40539 0)
(-62.4684 -1.36113 0)
(-62.4122 -1.31999 0)
(-62.3137 -1.27805 0)
(-62.3023 -1.23894 0)
(-62.394 -1.20246 0)
(-62.3887 -1.16369 1.23458e-20)
(-62.384 -1.1261 0)
(-62.5356 -1.09295 0)
(-62.5314 -1.05526 1.11909e-20)
(-62.3721 -1.01711 0)
(-62.3689 -0.982008 0)
(-62.5219 -0.950043 0)
(-62.5192 -0.914024 0)
(-62.3611 -0.877835 0)
(-62.3592 -0.843911 0)
(-62.3575 -0.810803 0)
(-62.4105 -0.779188 4.12995e-21)
(-62.5716 -0.749331 0)
(-62.6671 -0.718023 0)
(-62.557 -0.685458 3.63314e-21)
(-62.4512 -0.652489 0)
(-62.4464 -0.620892 0)
(-62.442 -0.590954 -3.13099e-21)
(-62.4378 -0.561013 2.97235e-21)
(-62.3982 -0.530552 0)
(-62.3885 -0.501615 2.65765e-21)
(-62.3956 -0.472406 0)
(-62.3863 -0.445106 0)
(-62.3937 -0.415072 0)
(-62.3848 -0.387748 -1.02718e-21)
(-62.4155 -0.359514 0)
(-62.4133 -0.332059 0)
(-62.3925 -0.305342 0)
(-62.3675 -0.27862 0)
(-62.3698 -0.252026 0)
(-62.3721 -0.227089 6.01341e-22)
(-62.3856 -0.201434 0)
(-62.3947 -0.174689 0)
(-62.3802 -0.149762 0)
(-62.3884 -0.123989 1.64163e-22)
(-62.4012 -0.0990465 0)
(-62.4007 -0.0757418 5.01418e-23)
(-62.4003 -0.0507722 0)
(-62.4001 -0.0282993 0)
(-62.4 -0.00416166 -1.72191e-25)
(-62.4 0.0191436 0)
(-62.4002 0.0424489 -1.40508e-23)
(-62.4005 0.0665863 0)
(-62.3902 0.0882113 0)
(-62.3973 0.111479 1.47541e-22)
(-62.4022 0.134003 0)
(-62.4029 0.15481 0)
(-62.4037 0.176448 2.33621e-22)
(-62.4047 0.197254 0)
(-62.4058 0.218891 0)
(-62.407 0.240528 0)
(-62.3844 0.262169 6.94511e-22)
(-62.3672 0.282775 0)
(-62.3925 0.302847 8.0195e-22)
(-62.4126 0.323738 0)
(-62.4141 0.342875 -9.07945e-22)
(-62.3845 0.362805 0)
(-62.3603 0.380796 0)
(-62.3934 0.400943 0)
(-62.3856 0.421001 0)
(-62.3945 0.440833 0)
(-62.3868 0.459235 0)
(-62.3958 0.478222 2.5327e-21)
(-62.3883 0.49663 0)
(-62.3974 0.514772 0)
(-62.4341 0.532732 0)
(-62.391 0.549799 0)
(-62.3536 0.566893 0)
(-62.3534 0.58514 0)
(-62.3533 0.603384 0)
(-62.3533 0.620795 -3.2891e-21)
(-62.3533 0.638205 -3.38133e-21)
(-62.3534 0.654782 -3.46916e-21)
(-62.3535 0.671357 0)
(-62.4095 0.688544 0)
(-62.4027 0.7045 3.73408e-21)
(-62.3544 0.719409 3.81157e-21)
(-62.4142 0.736674 0)
(-62.5639 0.755354 4.00361e-21)
(-62.5117 0.771325 0)
(-62.3565 0.78565 4.16253e-21)
(-62.3571 0.800868 0)
(-62.3578 0.81577 0)
(-62.3585 0.831497 0)
(-62.3593 0.845566 -8.96354e-21)
(-62.3601 0.860461 0)
(-62.3609 0.874526 -9.27053e-21)
(-62.5177 0.892467 0)
(-62.5188 0.908221 -9.62772e-21)
(-62.364 0.921209 9.76931e-21)
(-62.3651 0.934897 0)
(-62.3662 0.949329 0)
(-62.3673 0.963002 0)
(-62.3684 0.976613 0)
(-62.3696 0.990666 0)
(-62.3707 1.00266 0)
(-62.5279 1.01965 -1.08133e-20)
(-62.5294 1.03456 -1.09714e-20)
(-62.3749 1.0452 0)
(-62.532 1.06106 -1.12524e-20)
(-62.5336 1.07556 0)
(-62.5349 1.08755 0)
(-62.5364 1.10079 -1.16737e-20)
(-62.5378 1.11281 -1.1806e-20)
(-62.5394 1.12561 -1.19369e-20)
(-62.385 1.13481 1.20393e-20)
(-62.3867 1.14801 0)
(-62.4525 1.16159 0)
(-62.5251 1.17613 0)
(-62.4624 1.18766 -1.2595e-20)
(-62.4548 1.19917 0)
(-62.6201 1.21425 0)
(-62.5526 1.2253 0)
(-62.5541 1.23522 -1.31046e-20)
(-62.4578 1.24615 0)
(-62.3117 1.25341 1.32976e-20)
(-62.3044 1.26607 0)
(-62.3137 1.27805 -1.3559e-20)
(-62.5632 1.29438 0)
(-62.5653 1.30677 -1.38693e-20)
(-62.4113 1.31423 0)
(-62.5689 1.32824 0)
(-62.7276 1.34233 0)
(-62.5726 1.34971 0)
(-62.4185 1.35623 0)
(-62.3138 1.36595 -1.45032e-20)
(-62.3232 1.37626 0)
(-62.4715 1.39074 0)
(-62.6373 1.40539 0)
(-62.5847 1.41545 0)
(-62.4751 1.42199 0)
(-62.5286 1.43387 1.52243e-20)
(-62.529 1.44372 0)
(-62.3738 1.44995 0)
(-62.2195 1.45533 0)
(-62.2201 1.46595 0)
(-62.3357 1.47929 0)
(-62.445 1.4917 0)
(-62.4472 1.50215 1.59557e-20)
(-62.3315 1.50917 0)
(-62.4961 1.52155 0)
(-62.4893 1.5318 -1.62706e-20)
(-62.3791 1.53726 0)
(-62.3799 1.54707 -1.64328e-20)
(-62.3804 1.55524 0)
(-62.537 1.56978 0)
(-62.5377 1.57878 0)
(-62.5385 1.58861 0)
(-62.664 1.6008 3.40072e-20)
(-62.6572 1.61027 0)
(-62.667 1.61888 0)
(-62.6601 1.62752 -3.45887e-20)
(-62.5138 1.63206 -3.46711e-20)
(-62.6347 1.64322 -3.49222e-20)
(-62.6646 1.65381 0)
(-62.545 1.65963 0)
(-62.3903 1.66447 0)
(-62.3911 1.67263 -3.55472e-20)
(-62.5477 1.68579 0)
(-62.5249 1.69414 3.60044e-20)
(-62.518 1.70195 0)
(-62.5504 1.71031 0)
(-62.5514 1.71834 0)
(-62.5523 1.72664 0)
(-62.5534 1.7355 0)
(-62.3989 1.74014 -3.69969e-20)
(-62.3804 1.74705 3.7129e-20)
(-62.6662 1.76308 3.74847e-20)
(-62.8256 1.77656 0)
(-62.8277 1.78396 0)
(-62.6904 1.78891 0)
(-62.405 1.78737 0)
(-62.4058 1.79387 -3.81393e-20)
(-62.5627 1.80803 0)
(-62.5637 1.81547 0)
(-62.565 1.82435 0)
(-62.7085 1.83513 -3.90166e-20)
(-62.7021 1.84381 0)
(-62.5683 1.84717 0)
(-62.5694 1.85451 3.94443e-20)
(-62.415 1.85722 0)
(-62.4159 1.86372 0)
(-62.4172 1.87184 0)
(-62.564 1.88354 0)
(-62.7142 1.89693 0)
(-62.5763 1.89931 4.03972e-20)
(-62.5776 1.90739 0)
(-62.5787 1.91396 4.07088e-20)
(-62.58 1.92204 0)
(-62.5811 1.92855 4.10357e-20)
(-62.5823 1.93588 0)
(-62.7344 1.94631 0)
(-62.881 1.95975 0)
(-62.5739 1.95823 0)
(-62.4317 1.95947 0)
(-62.5887 1.97248 0)
(-62.5899 1.97898 4.21087e-20)
(-62.5913 1.98708 4.22981e-20)
(-62.5922 1.99199 0)
(-62.5937 2.00009 -4.25749e-20)
(-62.7508 2.0108 0)
(-62.7448 2.01949 0)
(-62.5977 2.02122 0)
(-62.5993 2.02934 0)
(-62.6004 2.03502 0)
(-62.6018 2.04233 4.34741e-20)
(-62.6032 2.04964 4.36297e-20)
(-62.6044 2.05532 -4.37506e-20)
(-62.6058 2.06263 0)
(-62.607 2.06831 0)
(-62.6088 2.07724 0)
(-62.61 2.08291 0)
(-62.6115 2.09022 0)
(-62.613 2.09752 0)
(-62.6144 2.10401 0)
(-62.4522 2.10499 0)
(-62.2984 2.10621 0)
(-62.6638 2.38884 5.0932e-20)
(-62.6875 2.39785 0)
(-62.8453 2.41028 0)
(-62.8528 2.43612 0)
(-62.8215 2.44304 0)
(-62.6757 2.44438 -5.21371e-20)
(-62.5137 2.44535 0)
(-62.6779 2.45718 0)
(-62.8638 2.4726 0)
(-62.8654 2.47825 5.28808e-20)
(-62.8677 2.48551 0)
(-62.7139 2.48658 5.30587e-20)
(-62.7162 2.49382 0)
(-62.68 2.4997 0)
(-62.6901 2.50707 0)
(-62.7225 2.51393 0)
(-62.8805 2.5268 -5.39387e-20)
(-62.6862 2.52772 0)
(-62.5005 2.52656 0)
(-62.502 2.53452 -5.41033e-20)
(-62.349 2.53462 0)
(-62.504 2.54724 0)
(-62.6602 2.55993 -5.46459e-20)
(-62.8611 2.57608 0)
(-62.6988 2.57834 0)
(-62.554 2.57849 0)
(-62.7486 2.59384 5.5392e-20)
(-62.5493 2.59192 0)
(-62.3592 2.59111 5.53337e-20)
(-62.3607 2.59903 0)
(-62.5159 2.61259 0)
(-62.721 2.62906 0)
(-62.7144 2.63532 -5.63006e-20)
(-62.8803 2.64919 5.6574e-20)
(-62.8275 2.65589 0)
(-62.5855 2.65353 5.66896e-20)
(-62.793 2.66825 5.6981e-20)
(-62.9954 2.68406 0)
(-62.9982 2.69185 -5.75083e-20)
(-62.8072 2.69301 0)
(-62.6085 2.691 0)
(-62.6101 2.69871 0)
(-62.8214 2.71387 5.79786e-20)
(-62.816 2.7235 0)
(-62.6153 2.72273 0)
(-62.6167 2.72922 0)
(-62.6183 2.73659 -5.84877e-20)
(-62.8334 2.75488 5.88786e-20)
(-62.8434 2.76393 0)
(-62.639 2.76023 0)
(-62.6568 2.77109 0)
(-62.6742 2.78001 0)
(-62.6757 2.78634 0)
(-62.6623 2.79491 0)
(-62.6641 2.8025 0)
(-62.6814 2.81055 0)
(-62.6839 2.82082 0)
(-62.7008 2.82738 0)
(-62.7032 2.83733 0)
(-62.6899 2.84524 0)
(-63.36 2.88292 0)
)
;
    }
}


// ************************************************************************* //
