/*--------------------------------*- C++ -*----------------------------------*\
  =========                 |
  \\      /  F ield         | OpenFOAM: The Open Source CFD Toolbox
   \\    /   O peration     | Website:  https://openfoam.org
    \\  /    A nd           | Version:  10
     \\/     M anipulation  |
\*---------------------------------------------------------------------------*/
FoamFile
{
    format      ascii;
    class       volScalarField;
    location    "400";
    object      k;
}
// * * * * * * * * * * * * * * * * * * * * * * * * * * * * * * * * * * * * * //

dimensions      [0 2 -2 0 0 0 0];

internalField   nonuniform List<scalar> 
96890
(
0.00117317
0.0405945
0.361234
1.42223
2.8014
3.79088
4.4214
4.82947
5.10119
5.28565
5.41046
5.49179
5.5395
5.5596
5.55439
5.52474
5.47117
5.39756
5.318
5.25366
5.21602
5.18923
5.01375
0.00742116
0.257444
2.07645
5.5146
7.76253
9.0581
9.84293
10.3846
10.7921
11.1176
11.3882
11.6178
11.8149
11.9856
12.1362
12.2724
12.3973
12.5018
12.563
12.5387
12.3512
11.8208
10.4446
0.00743764
0.257937
2.08082
5.53435
7.79387
9.0966
9.88287
10.4209
10.8241
11.1457
11.4128
11.6402
11.8369
12.0098
12.1651
12.3085
12.4413
12.5528
12.6192
12.5981
12.4068
11.8523
10.4102
0.000865021
0.0298588
0.26615
1.09491
2.31403
3.28246
3.95958
4.44859
4.81827
5.10649
5.33361
5.51222
5.64823
5.74332
5.80126
5.82037
5.81097
5.77147
5.72489
5.69762
5.70408
5.74772
5.69696
1.80218e-05
0.000536245
0.00424811
0.0234549
0.0840541
0.193755
0.367973
0.578897
0.817371
1.07608
1.32941
1.58344
1.82868
2.05556
2.26316
2.45343
2.63106
2.79332
2.93469
3.05533
3.15151
3.23665
3.28691
0.000910929
0.0314482
0.280348
1.15256
2.42382
3.42211
4.10372
4.5808
4.92905
5.19177
5.39267
5.54561
5.65813
5.73475
5.77873
5.78646
5.76575
5.72136
5.66822
5.62996
5.62542
5.65222
5.57028
0.000888669
0.0306786
0.273519
1.12736
2.38334
3.377
4.06209
4.54545
4.90061
5.1703
5.37752
5.53596
5.65366
5.73531
5.78224
5.79877
5.78407
5.7455
5.69665
5.66328
5.66392
5.69872
5.62791
0.00110512
0.0381261
0.338092
1.34683
2.69676
3.68802
4.33384
4.76458
5.0617
5.27083
5.41774
5.51812
5.58185
5.61517
5.62224
5.60515
5.56511
5.50578
5.43996
5.38722
5.36108
5.35162
5.18488
0.0010777
0.0371801
0.329904
1.32016
2.66149
3.65253
4.30298
4.73835
5.0416
5.2581
5.41322
5.52173
5.59286
5.63254
5.64473
5.63176
5.59539
5.5398
5.47777
5.42893
5.40729
5.40419
5.25293
0.00105064
0.0362434
0.321724
1.29285
2.62383
3.61627
4.27256
4.71432
5.02468
5.24834
5.41086
5.52681
5.60504
5.65102
5.66829
5.65939
5.62644
5.57392
5.51496
5.46924
5.4522
5.45526
5.30674
0.00102059
0.0352079
0.312781
1.26287
2.58212
3.57572
4.23729
4.68718
5.00605
5.23819
5.40895
5.5328
5.61844
5.67097
5.6937
5.68907
5.65936
5.60949
5.55295
5.50959
5.49665
5.50534
5.36008
0.000986965
0.0340539
0.302879
1.22999
2.53527
3.5318
4.19968
4.65786
4.98534
5.22639
5.40604
5.53848
5.6322
5.69191
5.72073
5.72069
5.69421
5.64652
5.59167
5.55006
5.54055
5.55584
5.4326
0.000952894
0.032882
0.292713
1.19561
2.4872
3.48589
4.15994
4.6267
4.96325
5.21388
5.40261
5.54344
5.64482
5.71123
5.74568
5.75049
5.72753
5.68218
5.62882
5.58912
5.58262
5.60367
5.4903
0.00113744
0.0392387
0.347626
1.37726
2.73909
3.73239
4.37435
4.79735
5.08476
5.28333
5.41994
5.51083
5.56651
5.59368
5.59589
5.57443
5.5301
5.4664
5.39627
5.33983
5.30999
5.29574
5.12877
0.00097508
0.0342418
0.308393
1.19774
2.41503
3.34319
3.97051
4.42039
4.76779
5.04757
5.27287
5.44541
5.57073
5.66394
5.72449
5.74653
5.76175
5.76419
5.74112
5.72974
5.74936
5.80956
5.78001
0.00116388
0.0401539
0.355508
1.40313
2.77607
3.76886
4.40443
4.81841
5.0962
5.28565
5.41431
5.49911
5.55024
5.5737
5.57237
5.54715
5.49858
5.43026
5.35572
5.2958
5.2622
5.24115
5.05923
0.00136033
0.0470442
0.416907
1.59911
3.03103
4.00239
4.59408
4.95195
5.17003
5.2977
5.36379
5.38601
5.3744
5.33578
5.27421
5.19164
5.08947
4.97245
4.85715
4.76473
4.7098
4.68217
4.4875
0.00119942
0.0415221
0.369017
1.44584
2.83374
3.82112
4.44667
4.84854
5.11443
5.2929
5.41203
5.48774
5.52969
5.544
5.53266
5.49692
5.4374
5.35811
5.27363
5.20459
5.1647
5.13623
4.93024
0.0012371
0.0426722
0.377025
1.47053
2.86537
3.8512
4.47167
4.86683
5.12665
5.29936
5.41286
5.48311
5.51965
5.527
5.50914
5.467
5.40139
5.31648
5.22711
5.15402
5.11155
5.082
4.85864
0.00125976
0.0434585
0.383776
1.49186
2.8935
3.87736
4.49355
4.88396
5.13835
5.306
5.41376
5.47756
5.50715
5.50815
5.48368
5.43509
5.3634
5.27302
5.17891
5.1025
5.05743
5.02693
4.80968
0.00128055
0.0441761
0.389945
1.51117
2.9183
3.89981
4.51283
4.89993
5.15023
5.31255
5.41396
5.47086
5.49349
5.48767
5.45668
5.40202
5.32477
5.22953
5.13146
5.05197
5.00491
4.97544
4.74998
0.00129064
0.0446494
0.395607
1.52928
2.9425
3.92463
4.53608
4.91954
5.16452
5.31986
5.41368
5.46262
5.47792
5.4651
5.42766
5.36705
5.28454
5.18479
5.08317
5.00116
4.95177
4.91995
4.70912
0.00131051
0.0453708
0.401657
1.55008
2.97026
3.95366
4.56185
4.93904
5.17643
5.32381
5.40991
5.45206
5.45978
5.44043
5.39714
5.33123
5.24397
5.14013
5.03515
4.95121
4.89983
4.86549
4.67406
0.00134384
0.046353
0.408104
1.56948
2.99546
3.97688
4.58065
4.95101
5.181
5.32124
5.40059
5.43644
5.439
5.41447
5.36622
5.29586
5.20469
5.09741
4.98976
4.90362
4.85158
4.81941
4.63779
0.00135891
0.0468648
0.412397
1.58226
3.01313
3.99075
4.59049
4.95413
5.17838
5.31334
5.38778
5.41865
5.41618
5.38673
5.33383
5.25934
5.1646
5.05429
4.94456
4.85599
4.80401
4.77524
4.57815
0.00136162
0.0470128
0.415452
1.59249
3.02444
3.99663
4.59195
4.9518
5.1725
5.30336
5.37349
5.4
5.39303
5.3591
5.30203
5.22378
5.12568
5.01244
4.90047
4.80988
4.7572
4.73161
4.52417
0.00147293
0.0506806
0.445331
1.67531
3.10569
4.02786
4.54872
4.81873
4.94298
4.97779
4.95623
4.89914
4.82022
4.7288
4.63118
4.53212
4.43675
4.3553
4.2988
4.27648
4.28292
4.28844
4.08235
0.00148273
0.0509565
0.446462
1.67707
3.10574
4.02476
4.54247
4.80986
4.93169
4.96458
4.94146
4.88332
4.80416
4.71328
4.61707
4.52035
4.42839
4.35128
4.29906
4.27995
4.29128
4.29779
4.07696
0.00137695
0.0476106
0.421707
1.61511
3.05033
4.02055
4.60936
4.96235
5.17405
5.29482
5.35378
5.36868
5.35044
5.30598
5.23934
5.15239
5.04647
4.92636
4.80873
4.71607
4.66149
4.63196
4.44755
0.00140215
0.0484061
0.427006
1.62733
3.06463
4.03205
4.61665
4.9643
5.17017
5.28537
5.33909
5.34819
5.32501
5.27634
5.20612
5.11607
5.00747
4.88522
4.76638
4.67311
4.62018
4.59417
4.42176
0.00142812
0.0491856
0.43203
1.63883
3.07705
4.04239
4.62264
4.96466
5.16476
5.27394
5.3218
5.32625
5.29873
5.24617
5.17248
5.07927
4.96785
4.84344
4.72388
4.63097
4.58018
4.55711
4.38464
0.00142243
0.0491294
0.433646
1.64503
3.08371
4.04777
4.62459
4.96152
5.15603
5.26005
5.30312
5.30334
5.27187
5.21572
5.13865
5.04236
4.92824
4.80197
4.68187
4.58991
4.54137
4.52123
4.34795
0.00142945
0.049411
0.436185
1.65243
3.09225
4.05205
4.62357
4.95634
5.14632
5.24583
5.28446
5.28051
5.24527
5.18566
5.10537
5.00617
4.88972
4.76228
4.64255
4.55179
4.50617
4.49103
4.31199
0.00144929
0.0499098
0.438641
1.6573
3.09769
4.05547
4.6233
4.95158
5.13689
5.23142
5.26561
5.25748
5.2184
5.15529
5.07183
4.96989
4.85152
4.72335
4.60433
4.51538
4.47268
4.46192
4.2905
0.00145649
0.0501759
0.440321
1.66202
3.10358
4.05766
4.62192
4.94548
5.12614
5.21612
5.2462
5.23419
5.19146
5.12496
5.03849
4.9341
4.81409
4.68542
4.56752
4.48133
4.44174
4.43429
4.27029
0.00147713
0.0507695
0.443217
1.66793
3.10758
4.05877
4.61965
4.93905
5.11508
5.20063
5.2266
5.2109
5.16481
5.09518
5.00596
4.89939
4.77808
4.64953
4.53369
4.45075
4.41442
4.41041
4.25567
0.00149323
0.0512412
0.445496
1.67255
3.11151
4.0593
4.61636
4.93153
5.10365
5.18536
5.20752
5.18812
5.13858
5.06579
4.9739
4.86539
4.7434
4.61609
4.5034
4.42345
4.39027
4.38943
4.22357
0.00149768
0.0513857
0.446653
1.67565
3.11547
4.05957
4.61311
4.9242
5.09216
5.16994
5.18838
5.16542
5.11244
5.03655
4.94208
4.832
4.71014
4.58497
4.47569
4.39839
4.36799
4.37052
4.21241
0.00148744
0.0510923
0.446047
1.67588
3.11633
4.05861
4.60884
4.9165
5.08084
5.15515
5.16957
5.14295
5.08651
5.00752
4.91068
4.79959
4.67838
4.55559
4.44942
4.37534
4.34788
4.35308
4.19024
0.00147604
0.050795
0.445831
1.67753
3.11618
4.05772
4.60387
4.90819
5.06908
5.13994
5.15078
5.12044
5.0605
4.97856
4.87967
4.76778
4.64727
4.52667
4.42398
4.35416
4.3298
4.33794
4.18906
0.00149187
0.0512607
0.44778
1.68003
3.11531
4.05497
4.59935
4.90022
5.05768
5.12492
5.13209
5.09814
5.03492
4.95019
4.84949
4.73697
4.6172
4.49911
4.40115
4.33606
4.31464
4.32331
4.17242
0.00148317
0.0509866
0.44647
1.6788
3.11541
4.05242
4.59496
4.89315
5.04728
5.11092
5.1143
5.07655
5.00997
4.92262
4.82029
4.70741
4.58898
4.47439
4.38156
4.32136
4.30296
4.31229
4.17021
0.00147475
0.0507882
0.446345
1.67863
3.11548
4.05195
4.59249
4.88772
5.03814
5.09746
5.09663
5.05514
4.98527
4.89551
4.79193
4.67933
4.56304
4.45266
4.36458
4.30913
4.29386
4.30185
4.15072
0.00149098
0.0512953
0.448738
1.68173
3.12057
4.05442
4.59057
4.88188
5.02834
5.08366
5.0791
5.03395
4.96094
4.869
4.76472
4.65316
4.53963
4.4334
4.34965
4.29893
4.28714
4.29454
4.15112
0.00150394
0.0516635
0.450577
1.68558
3.12162
4.05341
4.58663
4.87472
5.01775
5.06947
5.06115
5.01251
4.93669
4.84314
4.73881
4.6289
4.51833
4.4162
4.33689
4.29131
4.28367
4.29054
4.1344
0.0015162
0.0519529
0.451633
1.68841
3.12188
4.05203
4.58337
4.86862
5.00795
5.0556
5.04309
4.99057
4.91198
4.81726
4.71346
4.60545
4.49786
4.40008
4.32596
4.28596
4.28231
4.28987
4.11772
0.00150839
0.0517455
0.45099
1.68892
3.12317
4.05252
4.5821
4.86361
4.99811
5.04072
5.02346
4.96727
4.88666
4.79161
4.68891
4.58308
4.47878
4.38568
4.31714
4.28235
4.2819
4.28866
4.10913
0.00150886
0.0517607
0.451183
1.68889
3.12491
4.0527
4.57932
4.85547
4.98433
5.0216
5.00045
4.94212
4.86104
4.76693
4.66609
4.5629
4.46228
4.37414
4.31117
4.28197
4.28485
4.29187
4.10907
0.00149022
0.0511833
0.448198
1.6825
3.11725
4.04266
4.56747
4.83852
4.96365
4.99817
4.9759
4.91785
4.83811
4.74579
4.64709
4.54647
4.44901
4.36473
4.30564
4.28048
4.28524
4.29225
4.10195
0.00154364
0.0536523
0.473985
1.77511
3.27899
4.28296
4.88516
5.22914
5.4181
5.51786
5.56133
5.56904
5.55416
5.52541
5.48865
5.4486
5.40707
5.36809
5.34257
5.34785
5.39151
5.44027
5.2019
0.00155447
0.053977
0.47618
1.78371
3.29247
4.29974
4.90355
5.2501
5.44148
5.54384
5.59005
5.60022
5.58728
5.55977
5.52347
5.4832
5.44082
5.40094
5.37485
5.38068
5.42586
5.47498
5.24192
0.00156061
0.0540839
0.476618
1.78839
3.30235
4.31088
4.91658
5.26578
5.45967
5.56494
5.61391
5.62644
5.6153
5.58894
5.55315
5.51292
5.47026
5.42975
5.40315
5.40933
5.45657
5.50726
5.2609
0.00156797
0.0543482
0.478982
1.79572
3.31432
4.32428
4.93175
5.2838
5.48075
5.589
5.64033
5.65461
5.64457
5.6189
5.58336
5.54312
5.50015
5.45903
5.43181
5.438
5.48689
5.54183
5.30474
0.00156495
0.054384
0.480772
1.80277
3.32512
4.33813
4.94898
5.30339
5.50283
5.61334
5.66651
5.68212
5.67291
5.64768
5.61252
5.57247
5.52942
5.48782
5.46
5.46589
5.51595
5.57395
5.33293
0.00148421
0.0510033
0.44658
1.67464
3.10083
4.01815
4.5347
4.7994
4.91951
4.95056
4.92638
4.86794
4.78899
4.69893
4.60419
4.50981
4.42115
4.34817
4.30004
4.2839
4.29845
4.30792
4.09254
0.00148147
0.0508783
0.445019
1.67005
3.09568
4.01189
4.52739
4.78959
4.90792
4.938
4.91336
4.85486
4.77625
4.68706
4.59399
4.50224
4.41717
4.34841
4.30401
4.29119
4.30845
4.32019
4.09892
0.00147534
0.0506983
0.444196
1.66905
3.09213
4.00565
4.51889
4.78026
4.89771
4.92723
4.90228
4.8437
4.76544
4.6772
4.58596
4.49707
4.4157
4.35097
4.30993
4.2999
4.31989
4.33557
4.12121
0.00147084
0.0505457
0.443393
1.66579
3.08622
3.99928
4.51218
4.77279
4.88956
4.9185
4.89306
4.83424
4.75628
4.66918
4.58013
4.49433
4.4166
4.35565
4.31763
4.31012
4.33281
4.35195
4.13339
0.00145663
0.0501226
0.440943
1.66108
3.08056
3.9937
4.50659
4.76646
4.88258
4.91095
4.88506
4.8262
4.74881
4.66318
4.57653
4.49397
4.41989
4.36252
4.32692
4.3218
4.34703
4.37089
4.16315
0.00145287
0.0499965
0.439476
1.65663
3.07566
3.98804
4.50184
4.7612
4.87682
4.9046
4.87822
4.8194
4.74286
4.6591
4.57536
4.4963
4.42587
4.37188
4.33813
4.33519
4.36282
4.39039
4.18114
0.00145049
0.0499726
0.438948
1.6524
3.07186
3.98466
4.49817
4.75704
4.87178
4.89896
4.87222
4.81369
4.73859
4.65729
4.5768
4.50139
4.43446
4.38352
4.35177
4.34999
4.37985
4.41237
4.21324
0.00145702
0.050075
0.438221
1.64974
3.06773
3.9819
4.49549
4.75394
4.86747
4.89357
4.86695
4.80949
4.73641
4.65808
4.58111
4.50916
4.44534
4.3969
4.36663
4.36595
4.39764
4.43422
4.23545
0.00146458
0.0501793
0.438015
1.64803
3.06476
3.97842
4.49115
4.74892
4.86217
4.88864
4.86279
4.80709
4.73687
4.66203
4.58858
4.51973
4.45854
4.41207
4.38328
4.38327
4.41647
4.4578
4.26954
0.0014459
0.0496477
0.43455
1.64087
3.05713
3.97299
4.48672
4.74499
4.85801
4.8848
4.86058
4.80765
4.74073
4.66944
4.59917
4.53283
4.47379
4.42885
4.40123
4.40183
4.43619
4.48117
4.2938
0.00143203
0.0492592
0.433148
1.63709
3.05228
3.96792
4.4819
4.7403
4.85437
4.88309
4.86139
4.81165
4.74843
4.68053
4.61287
4.54838
4.49088
4.44702
4.42036
4.42119
4.45612
4.50487
4.32792
0.00142394
0.049082
0.431962
1.6305
3.04598
3.96253
4.4779
4.73824
4.85352
4.88441
4.86604
4.82018
4.76047
4.69532
4.62954
4.5662
4.50977
4.46653
4.44072
4.44164
4.4768
4.52775
4.36007
0.00141717
0.0488581
0.430561
1.62788
3.04109
3.95851
4.47504
4.73735
4.855
4.88949
4.87498
4.83274
4.77601
4.71294
4.64822
4.58538
4.52961
4.48696
4.46212
4.4631
4.49817
4.55021
4.37129
0.0014028
0.0484935
0.429626
1.62627
3.03654
3.95445
4.47311
4.7386
4.86023
4.89894
4.88827
4.84911
4.79441
4.7324
4.66804
4.60541
4.55025
4.50833
4.48455
4.48544
4.51971
4.57497
4.4076
0.00140015
0.0484143
0.429031
1.62459
3.03527
3.95499
4.47651
4.74551
4.87119
4.9135
4.90569
4.86837
4.81453
4.75273
4.6884
4.62619
4.57204
4.53101
4.50822
4.50901
4.54215
4.59845
4.43191
0.00141111
0.0486963
0.429548
1.62447
3.03827
3.9613
4.48628
4.7587
4.88725
4.93173
4.92523
4.88855
4.83486
4.77285
4.70854
4.64701
4.59423
4.55441
4.53215
4.53257
4.56425
4.62104
4.46404
0.00141865
0.0488564
0.429034
1.62331
3.0428
3.97054
4.49909
4.77386
4.90406
4.95019
4.94491
4.90867
4.85489
4.7929
4.7292
4.66897
4.61798
4.57929
4.55689
4.5567
4.58675
4.64062
4.48982
0.00141474
0.0487424
0.42833
1.62332
3.04461
3.97551
4.50844
4.7874
4.9204
4.96847
4.96422
4.92859
4.87539
4.81423
4.75195
4.69368
4.64478
4.60694
4.58427
4.58361
4.61263
4.66407
4.53703
0.00141757
0.0488219
0.429327
1.6264
3.05003
3.98467
4.52076
4.80312
4.93805
4.98737
4.98376
4.94846
4.89588
4.83607
4.77587
4.71987
4.67294
4.63567
4.61261
4.61053
4.63829
4.68859
4.56335
0.00141453
0.0487709
0.428924
1.62721
3.05481
3.99522
4.53544
4.81985
4.95537
5.00508
5.00192
4.96762
4.91662
4.85894
4.80117
4.74734
4.70191
4.66468
4.64035
4.63652
4.66261
4.70995
4.58274
0.00140666
0.0485977
0.42941
1.62976
3.06079
4.00424
4.54789
4.83502
4.97108
5.02168
5.01982
4.98743
4.9389
4.88404
4.82885
4.77698
4.73253
4.6946
4.66859
4.66302
4.68777
4.7326
4.58938
0.00139761
0.0484503
0.429659
1.63146
3.06764
4.01373
4.55857
4.84707
4.98458
5.03718
5.03813
5.00876
4.96338
4.91144
4.85854
4.80807
4.76371
4.72449
4.69655
4.68951
4.71356
4.75832
4.61945
0.00142045
0.0490181
0.431809
1.63906
3.07399
4.02137
4.56826
4.85865
4.99886
5.05447
5.05865
5.03248
4.99011
4.94067
4.88954
4.83991
4.79488
4.75424
4.72453
4.71661
4.74109
4.78653
4.6437
0.00143728
0.0494613
0.434302
1.64666
3.08078
4.03
4.57924
4.8728
5.016
5.07468
5.08183
5.05851
5.01865
4.9711
4.921
4.8715
4.82551
4.7833
4.75199
4.74349
4.76932
4.81554
4.66207
0.00143964
0.0495612
0.435301
1.65061
3.08846
4.04109
4.59317
4.88956
5.03559
5.09719
5.107
5.08622
5.04848
5.00234
4.95277
4.90306
4.85595
4.8121
4.77925
4.77069
4.79826
4.84546
4.67569
0.00145369
0.0499459
0.437086
1.65579
3.09731
4.05222
4.60765
4.90779
5.05644
5.12091
5.13338
5.11507
5.07921
5.03421
4.98485
4.93468
4.88621
4.84075
4.80661
4.79847
4.82831
4.87787
4.71421
0.0014433
0.0497287
0.436991
1.65645
3.10453
4.06458
4.62289
4.92657
5.07824
5.14561
5.16094
5.14486
5.11054
5.06622
5.01678
4.96598
4.91605
4.86905
4.83407
4.82668
4.85899
4.9096
4.72733
0.00143488
0.0496151
0.437615
1.66003
3.1128
4.07632
4.63867
4.94523
5.10033
5.17066
5.18854
5.17462
5.14173
5.09798
5.04827
4.99668
4.94533
4.89713
4.86177
4.85541
4.88987
4.94315
4.75852
0.00142724
0.0494334
0.437296
1.6637
3.12068
4.08758
4.65438
4.96481
5.12295
5.19635
5.21693
5.20498
5.17316
5.12967
5.07955
5.02707
4.97434
4.92531
4.89015
4.88499
4.92124
4.9767
4.79842
0.00142326
0.0494322
0.439333
1.66985
3.13093
4.1011
4.67131
4.98527
5.14697
5.22321
5.24583
5.23528
5.20437
5.16116
5.11057
5.05715
5.00309
4.95368
4.91922
4.91531
4.9531
5.00998
4.81723
0.00144037
0.049925
0.442165
1.67868
3.14379
4.1183
4.691
5.00779
5.17186
5.25
5.27446
5.26537
5.23528
5.19216
5.14089
5.08642
5.03139
4.9821
4.94857
4.94572
4.98433
5.04438
4.8603
0.001458
0.0504249
0.445452
1.68901
3.15453
4.13333
4.70931
5.02929
5.19639
5.27684
5.3029
5.29513
5.26567
5.2225
5.17054
5.1153
5.05974
5.01098
4.9786
4.97674
5.0158
5.07759
4.90205
0.00146536
0.0508151
0.449081
1.69628
3.1673
4.14857
4.72844
5.0509
5.21997
5.30245
5.33051
5.32424
5.29559
5.25235
5.19973
5.14398
5.08843
5.04064
5.00965
5.00887
5.04818
5.11071
4.94627
0.00148345
0.051333
0.451616
1.704
3.17997
4.16325
4.74588
5.07142
5.24295
5.32795
5.3582
5.35331
5.32509
5.28159
5.22854
5.17275
5.11784
5.0714
5.04202
5.04232
5.08157
5.14269
4.97919
0.00150292
0.051864
0.454444
1.71267
3.19206
4.17791
4.76325
5.09188
5.26639
5.35407
5.38621
5.38221
5.35418
5.31038
5.25724
5.20186
5.14806
5.10325
5.07539
5.07652
5.11536
5.17444
5.00153
0.0015117
0.0521741
0.456714
1.72012
3.20454
4.19378
4.78234
5.11363
5.29075
5.38057
5.41412
5.41073
5.38274
5.33866
5.28576
5.2311
5.17886
5.13557
5.1088
5.11035
5.14841
5.20604
5.03561
0.00152119
0.0525157
0.459758
1.73123
3.22049
4.21153
4.80232
5.13571
5.31546
5.40699
5.44161
5.43839
5.41016
5.36609
5.31389
5.2605
5.2099
5.16786
5.14171
5.14345
5.18077
5.23627
5.05027
0.00151971
0.0525871
0.462755
1.74128
3.2336
4.22796
4.8211
5.15689
5.33941
5.43263
5.46791
5.4648
5.43666
5.39305
5.34191
5.29002
5.24103
5.20008
5.17437
5.17633
5.21307
5.2682
5.08686
0.00151762
0.0526779
0.465458
1.74917
3.245
4.24362
4.83992
5.17863
5.36315
5.45726
5.49289
5.48995
5.46224
5.4195
5.36995
5.31964
5.2723
5.23238
5.20723
5.20958
5.24643
5.29973
5.10641
0.00152888
0.0530034
0.467886
1.75803
3.25933
4.26028
4.86014
5.20135
5.3869
5.48087
5.51637
5.51345
5.48639
5.44498
5.39721
5.34859
5.30294
5.26409
5.2394
5.24213
5.27999
5.33198
5.12237
0.00153535
0.0531654
0.469448
1.76549
3.27167
4.27669
4.87977
5.2226
5.40763
5.50057
5.53583
5.53342
5.50784
5.46859
5.42316
5.37675
5.33266
5.29452
5.26987
5.27275
5.31132
5.36329
5.16618
0.00154194
0.0534001
0.470834
1.77045
3.28048
4.28591
4.88939
5.23284
5.4186
5.51227
5.54916
5.54927
5.52655
5.49069
5.44861
5.40505
5.36282
5.32547
5.30143
5.3058
5.3461
5.3939
5.19714
0.00154506
0.0535684
0.472693
1.77493
3.28301
4.28685
4.88909
5.2324
5.42039
5.51622
5.55553
5.55938
5.54081
5.50905
5.47028
5.42912
5.38771
5.35
5.32563
5.33095
5.37297
5.41873
5.20318
0.00274869
0.0954718
0.824747
2.77957
4.5955
5.74008
6.4485
6.9099
7.23167
7.46438
7.63537
7.76085
7.84997
7.90776
7.93615
7.93496
7.90228
7.83614
7.73826
7.61744
7.46779
7.22528
6.72916
0.00276883
0.0963446
0.834347
2.8082
4.63243
5.78121
6.49122
6.95442
7.2771
7.51019
7.68143
7.80745
7.89751
7.9568
7.98696
7.98719
7.95478
7.88735
7.78718
7.66342
7.50926
7.25939
6.76382
0.0028041
0.0977288
0.845882
2.83659
4.6673
5.81783
6.52901
6.99171
7.3145
7.54828
7.72084
7.84855
7.94099
8.00293
8.03561
8.0376
8.00581
7.93792
7.83668
7.71115
7.55199
7.29485
6.78954
0.00286438
0.0995248
0.857335
2.86506
4.70298
5.85455
6.56606
7.02819
7.35137
7.58591
7.76025
7.89067
7.98621
8.05119
8.08628
8.0898
8.05883
7.99135
7.8892
7.76033
7.59375
7.32905
6.81739
0.00288554
0.100392
0.866149
2.89018
4.73336
5.88561
6.59729
7.06031
7.38496
7.62218
7.79979
7.93394
8.03312
8.10123
8.13873
8.144
8.11439
8.04729
7.94303
7.80901
7.63475
7.36206
6.84951
0.00291721
0.101493
0.875832
2.91399
4.76162
5.91589
6.62834
7.09332
7.42047
7.66121
7.84284
7.98094
8.08366
8.15462
8.19423
8.2011
8.17217
8.10365
7.99538
7.85569
7.67594
7.39526
6.87204
0.0029683
0.103127
0.886667
2.94081
4.79116
5.94565
6.66008
7.1284
7.45942
7.70436
7.89014
8.03185
8.13748
8.21068
8.25217
8.26032
8.23095
8.15959
8.04714
7.90282
7.71924
7.4307
6.88762
0.00301909
0.104675
0.896769
2.96675
4.82334
5.98031
6.69739
7.16902
7.50383
7.75248
7.94149
8.08588
8.1938
8.26917
8.31267
8.322
8.2924
8.2196
8.10508
7.95732
7.76773
7.47101
6.92803
0.00305423
0.105975
0.908333
2.99278
4.85598
6.01751
6.7384
7.21377
7.552
7.80332
7.99468
8.14118
8.25139
8.32926
8.37527
8.38672
8.35884
8.28716
8.17174
8.01906
7.81956
7.51446
6.9604
0.00306708
0.106771
0.918339
3.01874
4.88982
6.05728
6.78156
7.25982
7.60053
7.85399
8.04748
8.19668
8.30987
8.39112
8.4407
8.45566
8.43093
8.36063
8.24247
8.0825
7.87197
7.55753
6.9991
0.00157465
0.0546718
0.48316
1.81253
3.33718
4.35253
4.96596
5.32241
5.52472
5.6372
5.69175
5.70821
5.69978
5.67544
5.64109
5.60154
5.55856
5.51661
5.4881
5.49341
5.54402
5.60681
5.38038
0.00159456
0.0553542
0.488402
1.82471
3.35008
4.36679
4.98262
5.34114
5.54554
5.6596
5.71526
5.73276
5.72534
5.70208
5.66891
5.63018
5.58749
5.5451
5.5156
5.51988
5.57055
5.63647
5.40967
0.00160351
0.0558082
0.492979
1.83371
3.36379
4.38121
4.99837
5.35894
5.56453
5.67963
5.73627
5.75508
5.74941
5.72796
5.69632
5.65854
5.61619
5.57304
5.542
5.5448
5.59495
5.66562
5.45738
0.00161392
0.0561011
0.494723
1.84019
3.37424
4.39383
5.01216
5.37365
5.58059
5.69726
5.75587
5.77689
5.77341
5.75399
5.7241
5.6873
5.64518
5.60092
5.56789
5.56883
5.61856
5.69088
5.49627
0.00162053
0.0563291
0.496924
1.84767
3.38287
4.40436
5.02433
5.38692
5.59554
5.71446
5.77549
5.79904
5.79802
5.78075
5.7524
5.71642
5.67434
5.62878
5.59351
5.59237
5.64152
5.71364
5.51209
0.00162965
0.056587
0.49873
1.85485
3.39225
4.41443
5.03426
5.39809
5.60941
5.7313
5.79535
5.8217
5.82305
5.80775
5.78087
5.74561
5.70335
5.65625
5.61843
5.61496
5.66333
5.73663
5.54068
0.00163967
0.0568685
0.500662
1.86319
3.40251
4.42437
5.04534
5.41062
5.62464
5.74903
5.81587
5.84492
5.84867
5.83529
5.80972
5.77498
5.7322
5.68332
5.64281
5.63684
5.68441
5.7581
5.55342
0.00164907
0.0573129
0.505192
1.87154
3.41458
4.43637
5.05758
5.42394
5.64057
5.76783
5.8373
5.86875
5.87463
5.86287
5.83833
5.8039
5.76034
5.70948
5.66608
5.65743
5.70386
5.78028
5.58074
0.00165998
0.0576914
0.508662
1.87988
3.42558
4.44812
5.06981
5.43812
5.65705
5.7869
5.85898
5.89283
5.90059
5.89024
5.86652
5.8322
5.78782
5.73484
5.68845
5.6769
5.72171
5.80106
5.62046
0.00168189
0.0583213
0.511874
1.88815
3.43503
4.45856
5.08178
5.4522
5.67392
5.80669
5.88138
5.91744
5.92674
5.9174
5.89429
5.86006
5.81488
5.75979
5.71045
5.69604
5.7391
5.81861
5.63983
0.00170241
0.0589244
0.515197
1.89643
3.44431
4.46862
5.09354
5.46644
5.69162
5.82728
5.90438
5.94196
5.95238
5.94389
5.92155
5.88754
5.84151
5.78429
5.73218
5.71512
5.7563
5.83561
5.66691
0.00169618
0.0587704
0.515846
1.90149
3.45128
4.47873
5.10777
5.48396
5.7122
5.84956
5.92761
5.96563
5.97654
5.96895
5.94764
5.91408
5.86719
5.80782
5.75323
5.73399
5.77312
5.84992
5.66848
0.00169273
0.0588267
0.518399
1.91052
3.46421
4.49558
5.1269
5.5047
5.7332
5.87075
5.94845
5.9867
5.99865
5.99257
5.97265
5.93944
5.89163
5.83001
5.77323
5.75247
5.78935
5.86528
5.69749
0.00170063
0.0590433
0.519593
1.9176
3.47552
4.51083
5.14371
5.52234
5.75028
5.8876
5.96603
6.00575
6.01992
6.01616
5.99778
5.96451
5.9153
5.85128
5.79289
5.77135
5.80683
5.87878
5.71763
0.00170886
0.0592634
0.521501
1.9265
3.48791
4.52248
5.15496
5.5331
5.76171
5.90042
5.98139
6.02443
6.04212
6.04105
6.02364
5.98942
5.9378
5.87138
5.81201
5.79068
5.82585
5.89267
5.71322
0.00171456
0.0595852
0.525503
1.93419
3.4959
4.52983
5.16237
5.54126
5.77189
5.91345
5.99805
6.04494
6.06582
6.06653
6.04888
6.01264
5.95762
5.88907
5.82941
5.80913
5.84455
5.90825
5.7158
0.00172694
0.0600196
0.528441
1.94153
3.50357
4.53658
5.16968
5.5498
5.78298
5.92818
6.01686
6.06737
6.09057
6.09151
6.07208
6.0326
5.97427
5.90421
5.84545
5.82628
5.86223
5.92249
5.71248
0.0017355
0.0603128
0.530733
1.94879
3.51358
4.54648
5.17973
5.56133
5.79812
5.94692
6.03875
6.09144
6.11525
6.11511
6.0929
6.04973
5.98879
5.91854
5.86165
5.84396
5.87994
5.93721
5.7092
0.0017325
0.0603371
0.533225
1.9568
3.52272
4.55729
5.19306
5.57696
5.81672
5.96826
6.06216
6.1159
6.13907
6.13652
6.11083
6.06442
6.00198
5.93275
5.87805
5.86185
5.89757
5.9539
5.72264
0.00174177
0.0606433
0.535728
1.96533
3.53489
4.57061
5.20731
5.59332
5.83595
5.98984
6.08519
6.13893
6.16035
6.15479
6.12579
6.07703
6.01418
5.94642
5.89379
5.8788
5.91428
5.97047
5.74872
0.00176636
0.0612632
0.53841
1.97501
3.54887
4.58494
5.2213
5.61012
5.85562
6.01154
6.10726
6.15993
6.17828
6.16944
6.1378
6.08796
6.02543
5.95931
5.90852
5.89531
5.93056
5.9855
5.75538
0.00177847
0.0616767
0.541434
1.98429
3.56125
4.5981
5.23536
5.62752
5.87534
6.03223
6.12705
6.17721
6.19228
6.18047
6.14718
6.09725
6.03574
5.9719
5.92355
5.91214
5.94632
6.00042
5.77944
0.00178612
0.0620049
0.544764
1.99272
3.57319
4.61265
5.25251
5.64729
5.89599
6.05163
6.14357
6.18993
6.20232
6.18891
6.15548
6.10659
6.04691
5.98572
5.94065
5.92977
5.96241
6.01279
5.79281
0.0018017
0.0624682
0.548467
2.00484
3.59157
4.63323
5.27469
5.66878
5.91529
6.06755
6.15577
6.19906
6.20995
6.19647
6.16415
6.11709
6.05979
6.00099
5.95759
5.94683
5.97853
6.02477
5.78626
0.0018122
0.0628186
0.551456
2.0141
3.60599
4.65139
5.29301
5.68425
5.92703
6.07614
6.16247
6.20521
6.21646
6.2042
6.17349
6.12833
6.0728
6.01492
5.97118
5.96216
5.994
6.03846
5.80076
0.00181041
0.0628583
0.553757
2.02113
3.61283
4.65825
5.29887
5.68803
5.92998
6.07932
6.16655
6.21073
6.22343
6.21276
6.18363
6.1401
6.08536
6.02781
5.98462
5.97778
6.01072
6.05344
5.79948
0.00182006
0.0632272
0.556158
2.02726
3.62058
4.66371
5.30337
5.69293
5.93547
6.08534
6.17331
6.21809
6.23148
6.22174
6.19342
6.15055
6.09646
6.03974
5.99925
5.99355
6.029
6.06988
5.79878
0.00184299
0.0639148
0.560106
2.03604
3.63146
4.67427
5.31372
5.70246
5.94485
6.09449
6.18209
6.2264
6.23958
6.22958
6.20176
6.15903
6.1065
6.05111
6.01263
6.00819
6.04715
6.0848
5.82526
0.00184723
0.064137
0.562901
2.04309
3.64098
4.68524
5.32585
5.71362
5.95467
6.10283
6.18938
6.23294
6.2461
6.2364
6.20942
6.16849
6.11813
6.06555
6.02764
6.02581
6.06543
6.10412
5.85843
0.00185973
0.06458
0.566835
2.05561
3.65374
4.69734
5.33568
5.7223
5.96213
6.10931
6.19531
6.23877
6.25229
6.24349
6.2178
6.17853
6.12947
6.07698
6.03849
6.03819
6.08273
6.12474
5.86988
0.00186649
0.0647503
0.568342
2.06124
3.66081
4.7057
5.34313
5.7281
5.96703
6.11359
6.19953
6.24374
6.25813
6.25038
6.22581
6.18722
6.13756
6.08391
6.04429
6.04902
6.09868
6.14477
5.89791
0.00187758
0.0651387
0.571119
2.06763
3.66889
4.71188
5.34771
5.7318
5.97039
6.11765
6.20436
6.24936
6.26475
6.25814
6.23427
6.19563
6.14541
6.09263
6.05742
6.06451
6.11828
6.16646
5.91323
0.00189806
0.0657566
0.574441
2.07495
3.67726
4.71935
5.35447
5.738
5.97663
6.12387
6.21078
6.25616
6.27206
6.26585
6.24198
6.20312
6.15349
6.10312
6.07136
6.08248
6.13811
6.18856
5.92904
0.00189445
0.0657652
0.576437
2.08261
3.68628
4.726
5.36104
5.74448
5.98307
6.13035
6.21728
6.263
6.27933
6.27342
6.24946
6.21078
6.16237
6.1141
6.08444
6.09819
6.15611
6.21033
5.95595
0.00187625
0.0653965
0.576944
2.08676
3.69312
4.73351
5.36822
5.75112
5.98942
6.13692
6.22433
6.27059
6.2873
6.28146
6.25747
6.219
6.17106
6.12324
6.09459
6.11003
6.17392
6.23251
5.99049
0.00189435
0.0659642
0.58031
2.09435
3.70049
4.74155
5.37561
5.75804
5.99645
6.14419
6.23232
6.27926
6.29614
6.29001
6.26564
6.22686
6.1787
6.13133
6.1049
6.12326
6.19294
6.25396
6.00541
0.00191483
0.0665013
0.582566
2.09904
3.70575
4.74831
5.38176
5.76491
6.00408
6.15275
6.24144
6.28843
6.305
6.2984
6.27358
6.23451
6.18695
6.1419
6.11919
6.14149
6.21392
6.27782
6.03489
0.00191883
0.0665782
0.583253
2.10277
3.71303
4.75693
5.39002
5.77363
6.0133
6.16218
6.25081
6.29747
6.31351
6.30624
6.28089
6.24229
6.19688
6.15552
6.13617
6.16089
6.235
6.30192
6.05186
0.00193128
0.0670104
0.586459
2.11242
3.72345
4.76657
5.40013
5.78331
6.02287
6.17139
6.25959
6.3057
6.3209
6.313
6.28769
6.25038
6.20756
6.16916
6.15183
6.1777
6.25419
6.32686
6.08985
0.00193857
0.0672669
0.588574
2.11981
3.73311
4.77576
5.40864
5.79137
6.0307
6.17937
6.26732
6.31281
6.32746
6.31928
6.29453
6.25891
6.21843
6.18223
6.16668
6.19401
6.27283
6.35013
6.13273
0.00194774
0.0675726
0.592026
2.12777
3.74197
4.78446
5.41626
5.7995
6.039
6.18735
6.27478
6.31965
6.33375
6.32559
6.30183
6.26818
6.23016
6.19654
6.18339
6.21227
6.29224
6.37183
6.15764
0.00195693
0.0678899
0.594696
2.13557
3.75219
4.79498
5.42628
5.80922
6.04829
6.19617
6.28252
6.32618
6.33966
6.33193
6.30973
6.27851
6.24356
6.21311
6.20217
6.23162
6.31176
6.39383
6.19263
0.00195584
0.0679656
0.596945
2.14134
3.76028
4.80386
5.43479
5.81808
6.0566
6.2034
6.28856
6.33137
6.34487
6.33827
6.31834
6.29025
6.25872
6.23118
6.22175
6.25119
6.33131
6.41421
6.21099
0.00197961
0.0687387
0.600594
2.14954
3.76977
4.81396
5.44469
5.82681
6.06372
6.20856
6.29235
6.33481
6.34919
6.34474
6.32789
6.30322
6.27467
6.24912
6.24071
6.27011
6.35019
6.43418
6.24844
0.00199865
0.0692139
0.602979
2.1576
3.77769
4.8209
5.45127
5.83186
6.0671
6.21066
6.2942
6.33769
6.35428
6.35302
6.33979
6.31853
6.29264
6.26896
6.26186
6.29162
6.37033
6.45113
6.27813
0.00200253
0.0693419
0.60456
2.161
3.7806
4.82414
5.45364
5.83246
6.06698
6.21104
6.29606
6.34216
6.36216
6.36476
6.35525
6.33729
6.31416
6.29297
6.28765
6.31773
6.394
6.46713
6.2756
0.00200541
0.0694355
0.605283
2.16321
3.78253
4.82445
5.45261
5.83172
6.06673
6.21262
6.30039
6.35005
6.37396
6.38039
6.37419
6.35891
6.33826
6.3196
6.31592
6.34584
6.4185
6.4851
6.27712
0.00199668
0.0692168
0.605507
2.16526
3.78506
4.82771
5.4552
5.83432
6.07055
6.2188
6.30965
6.3627
6.39007
6.39953
6.39572
6.38235
6.36349
6.34631
6.34344
6.37245
6.44142
6.50134
6.27684
0.00200351
0.0694505
0.607011
2.1681
3.78987
4.83228
5.46002
5.84024
6.07855
6.2295
6.32381
6.38042
6.41083
6.42248
6.42026
6.40813
6.39035
6.374
6.37124
6.39875
6.46365
6.51736
6.28848
0.00199558
0.0693023
0.607478
2.17027
3.79627
4.83962
5.46871
5.85077
6.0921
6.24646
6.3439
6.40319
6.43559
6.44872