/*--------------------------------*- C++ -*----------------------------------*\
  =========                 |
  \\      /  F ield         | OpenFOAM: The Open Source CFD Toolbox
   \\    /   O peration     | Website:  https://openfoam.org
    \\  /    A nd           | Version:  10
     \\/     M anipulation  |
\*---------------------------------------------------------------------------*/
FoamFile
{
    format      ascii;
    class       volScalarField;
    location    "400";
    object      nut;
}
// * * * * * * * * * * * * * * * * * * * * * * * * * * * * * * * * * * * * * //

dimensions      [0 2 -1 0 0 0 0];

internalField   nonuniform List<scalar> 
96890
(
9.37942e-11
2.0842e-08
5.95376e-07
4.79045e-06
1.55736e-05
3.18138e-05
5.2866e-05
7.88332e-05
0.000110065
0.000147157
0.000190843
0.000241942
0.000301452
0.000370759
0.000451723
0.000547355
0.00066351
0.000812694
0.00102074
0.00130359
0.00155635
0.00155504
0.000980401
5.94872e-10
1.29048e-07
3.01016e-06
1.54698e-05
3.57914e-05
6.49039e-05
0.000101503
0.000147097
0.000203313
0.000272015
0.000355536
0.00045659
0.000578737
0.000727486
0.000913065
0.00115677
0.00150153
0.00201836
0.00278317
0.00357529
0.00390325
0.0035831
0.00261959
5.97315e-10
1.29392e-07
3.0153e-06
1.55112e-05
3.58196e-05
6.49377e-05
0.000101845
0.000147514
0.000203741
0.000272451
0.000355948
0.000457019
0.00057937
0.000728779
0.000915955
0.00116296
0.00151303
0.00203463
0.00279586
0.00360482
0.00391493
0.00358501
0.0026535
6.95522e-11
1.54046e-08
4.50587e-07
3.93898e-06
1.40281e-05
3.01899e-05
5.16459e-05
7.83433e-05
0.000110589
0.000148995
0.000194317
0.000247503
0.000309622
0.000381906
0.000465966
0.000564178
0.000682265
0.000828804
0.00102498
0.0013085
0.00158199
0.0015998
0.00112923
1.44406e-12
2.44783e-10
6.93378e-09
1.02005e-07
6.60139e-07
2.16758e-06
5.15135e-06
9.47244e-06
1.53245e-05
2.29803e-05
3.19656e-05
4.25703e-05
5.46367e-05
6.78266e-05
8.22846e-05
9.82228e-05
0.0001158
0.000135043
0.000155866
0.000178338
0.000202388
0.000228109
0.000256268
7.32056e-11
1.62153e-08
4.72076e-07
4.06956e-06
1.42257e-05
3.0253e-05
5.14002e-05
7.77576e-05
0.000109731
0.000147951
0.000193174
0.000246309
0.000308395
0.000380749
0.000465175
0.000563964
0.000682513
0.0008314
0.00103272
0.00131191
0.00159045
0.00162904
0.0011007
7.14176e-11
1.58235e-08
4.61802e-07
4.01102e-06
1.41459e-05
3.02231e-05
5.14908e-05
7.79731e-05
0.000110022
0.000148292
0.000193541
0.000246671
0.000308777
0.000381179
0.000465509
0.000564648
0.000683145
0.000831429
0.00103085
0.00131877
0.00160615
0.00163058
0.00116144
8.88499e-11
1.96214e-08
5.60542e-07
4.59496e-06
1.52209e-05
3.14221e-05
5.25553e-05
7.87411e-05
0.00011035
0.00014794
0.000192193
0.000243966
0.00030433
0.0003746
0.000456699
0.000553788
0.000671699
0.000822684
0.00103231
0.00130912
0.00156663
0.0015612
0.00110758
8.66461e-11
1.91413e-08
5.4821e-07
4.52732e-06
1.5121e-05
3.13231e-05
5.25226e-05
7.87915e-05
0.000110532
0.000148305
0.000192807
0.00024489
0.000305589
0.000376237
0.000458771
0.000556333
0.000674737
0.000826175
0.00103575
0.00131341
0.00157628
0.00157929
0.00107911
8.45133e-11
1.86702e-08
5.3587e-07
4.45563e-06
1.49935e-05
3.11911e-05
5.24448e-05
7.87902e-05
0.000110656
0.000148611
0.000193356
0.000245729
0.000306759
0.000377804
0.000460729
0.000558671
0.00067747
0.000829085
0.001038
0.00131178
0.00157495
0.00158134
0.00114058
8.20969e-11
1.81426e-08
5.22253e-07
4.37477e-06
1.48424e-05
3.10138e-05
5.22568e-05
7.8657e-05
0.000110624
0.00014873
0.000193685
0.000246331
0.00030771
0.000379129
0.000462444
0.000560733
0.000679701
0.000831098
0.00103871
0.00130753
0.00156959
0.00157941
0.0011426
7.93538e-11
1.75462e-08
5.06972e-07
4.28551e-06
1.46611e-05
3.08073e-05
5.20404e-05
7.84707e-05
0.0001105
0.000148702
0.000193814
0.000246692
0.000308385
0.000380164
0.000463861
0.000562456
0.000681509
0.000832428
0.00103837
0.00130566
0.00157223
0.00158865
0.00108279
7.66154e-11
1.69488e-08
4.91296e-07
4.19203e-06
1.44904e-05
3.0632e-05
5.18858e-05
7.83554e-05
0.000110427
0.00014873
0.000193992
0.000247062
0.000309007
0.000381081
0.000465073
0.000563907
0.000682922
0.000833131
0.00103683
0.00130714
0.00157632
0.00160266
0.00114047
9.14928e-11
2.01944e-08
5.7527e-07
4.67809e-06
1.53892e-05
3.16851e-05
5.28939e-05
7.91004e-05
0.000110673
0.000148164
0.000192269
0.000243826
0.000303872
0.000373775
0.000455489
0.000552105
0.00066954
0.00082014
0.00102889
0.00130248
0.00155425
0.0015385
0.00103725
7.67571e-11
1.76699e-08
5.20586e-07
4.30633e-06
1.49655e-05
3.2217e-05
5.51765e-05
8.35751e-05
0.000117518
0.000157439
0.00020424
0.000258595
0.000321296
0.000394198
0.000478977
0.000577944
0.000696753
0.000846101
0.00104463
0.00131183
0.00152739
0.00152665
0.00109914
9.36636e-11
2.06707e-08
5.87547e-07
4.75052e-06
1.5537e-05
3.18679e-05
5.3074e-05
7.92156e-05
0.000110678
0.000148019
0.000191924
0.000243259
0.000303072
0.000372723
0.000454125
0.000550338
0.000667295
0.000817403
0.00102579
0.00130171
0.00154962
0.00153305
0.00110564
1.08149e-10
2.39687e-08
6.74953e-07
5.22429e-06
1.63096e-05
3.25351e-05
5.35395e-05
7.91457e-05
0.000109757
0.000145772
0.000187731
0.000236325
0.000292294
0.000356685
0.000431112
0.000518375
0.000624025
0.000760195
0.00095259
0.00117784
0.00137436
0.00131908
0.000937711
9.59155e-11
2.13136e-08
6.0698e-07
4.84704e-06
1.56806e-05
3.19238e-05
5.29962e-05
7.89438e-05
0.000110174
0.000147239
0.000190865
0.000241853
0.000301167
0.000370175
0.000450665
0.000545698
0.000661109
0.000809294
0.00101613
0.00128399
0.00151798
0.00151002
0.000998234
9.96021e-11
2.19547e-08
6.19542e-07
4.91404e-06
1.57969e-05
3.20569e-05
5.31717e-05
7.90954e-05
0.0001103
0.000147315
0.000190836
0.000241658
0.000300756
0.000369363
0.000449332
0.000543662
0.000658171
0.000805347
0.00101106
0.00126851
0.00148828
0.00146442
0.00107678
1.01425e-10
2.23568e-08
6.29573e-07
4.96815e-06
1.5891e-05
3.21412e-05
5.32783e-05
7.92128e-05
0.00011038
0.000147343
0.000190746
0.000241347
0.000300134
0.000368343
0.000447725
0.000541248
0.000654673
0.000800391
0.0010041
0.00126628
0.00149084
0.00146623
0.00101874
1.03098e-10
2.27192e-08
6.386e-07
5.01604e-06
1.59762e-05
3.22414e-05
5.33882e-05
7.93464e-05
0.000110504
0.000147389
0.000190622
0.000240992
0.000299448
0.000367166
0.000445871
0.000538484
0.000650716
0.000794824
0.00099627
0.00125375
0.0014719
0.00144188
0.00107385
1.0324e-10
2.29004e-08
6.45784e-07
5.06159e-06
1.60696e-05
3.23962e-05
5.35673e-05
7.95247e-05
0.000110642
0.000147413
0.000190469
0.000240554
0.000298609
0.000365788
0.000443744
0.000535378
0.000646383
0.000788963
0.00098849
0.00124149
0.00145279
0.00140724
0.00108338
1.04802e-10
2.32703e-08
6.55063e-07
5.12396e-06
1.61836e-05
3.25307e-05
5.37189e-05
7.96165e-05
0.000110632
0.000147246
0.000190095
0.000239896
0.000297509
0.000364091
0.000441301
0.000531999
0.000641893
0.000783174
0.000981338
0.00124224
0.00145951
0.00142274
0.00105917
1.08188e-10
2.38311e-08
6.65503e-07
5.17686e-06
1.62653e-05
3.25624e-05
5.37392e-05
7.95606e-05
0.000110456
0.000146932
0.000189562
0.000239059
0.000296288
0.00036234
0.00043887
0.000528759
0.000637754
0.000778036
0.00097504
0.00124064
0.00146531
0.00144511
0.000943617
1.094e-10
2.4089e-08
6.71452e-07
5.19873e-06
1.62918e-05
3.2517e-05
5.3718e-05
7.94882e-05
0.000110325
0.000146697
0.00018917
0.000238453
0.000295328
0.00036088
0.000436771
0.000525878
0.000633948
0.000773226
0.000968834
0.00121773
0.00142957
0.00141934
0.00092931
1.0892e-10
2.40568e-08
6.74815e-07
5.21716e-06
1.63246e-05
3.25223e-05
5.37258e-05
7.9479e-05
0.000110295
0.000146574
0.00018888
0.000237916
0.000294436
0.0003595
0.000434737
0.000523036
0.000630052
0.000767953
0.000961807
0.00119051
0.00138835
0.00136052
0.000992983
1.17384e-10
2.58122e-08
7.10794e-07
5.31751e-06
1.61616e-05
3.15134e-05
5.13946e-05
7.48772e-05
0.0001023
0.000133917
0.000170125
0.000211394
0.000258418
0.000312185
0.000374323
0.000448022
0.000539945
0.000664275
0.00082781
0.00102965
0.00123328
0.00126994
0.000796001
1.18754e-10
2.6034e-08
7.13302e-07
5.32132e-06
1.61491e-05
3.1459e-05
5.12901e-05
7.47169e-05
0.000102061
0.00013359
0.000169674
0.000210793
0.000257655
0.000311276
0.000373356
0.000447158
0.000539339
0.000663929
0.00082406
0.00102315
0.00122083
0.00124646
0.000905812
1.09473e-10
2.42584e-08
6.82278e-07
5.27224e-06
1.6388e-05
3.26193e-05
5.36281e-05
7.92033e-05
0.000109723
0.000145596
0.000187325
0.000235545
0.000291042
0.000354829
0.00042848
0.000514708
0.000618963
0.000753238
0.000943195
0.00118474
0.00139653
0.00134733
0.000876241
1.1219e-10
2.47666e-08
6.91814e-07
5.30531e-06
1.64355e-05
3.2651e-05
5.36159e-05
7.91041e-05
0.000109467
0.000145141
0.000186612
0.000234447
0.000289441
0.000352618
0.000425498
0.000510769
0.000613911
0.000746975
0.000935695
0.00118124
0.00139264
0.00136294
0.000925831
1.1502e-10
2.52708e-08
7.00915e-07
5.33631e-06
1.647e-05
3.26671e-05
5.36156e-05
7.90184e-05
0.000109245
0.000144703
0.000185884
0.000233365
0.000287914
0.000350518
0.000422721
0.000507184
0.00060937
0.000741269
0.000928541
0.00116016
0.00135878
0.00132843
0.000896709
1.13674e-10
2.51532e-08
7.01481e-07
5.34436e-06
1.64635e-05
3.26165e-05
5.35316e-05
7.88422e-05
0.000108908
0.000144148
0.000185033
0.000232155
0.000286258
0.000348344
0.000419874
0.000503465
0.000604451
0.000734637
0.000919729
0.001153
0.00135346
0.00132775
0.000879599
1.14035e-10
2.52678e-08
7.04658e-07
5.35628e-06
1.64772e-05
3.2609e-05
5.34356e-05
7.865e-05
0.000108573
0.000143621
0.000184233
0.000231009
0.000284674
0.000346211
0.000417065
0.000499726
0.000599427
0.000728093
0.000911575
0.00113802
0.00133267
0.00130902
0.000924769
1.16223e-10
2.55604e-08
7.08527e-07
5.36218e-06
1.64749e-05
3.25829e-05
5.33448e-05
7.84626e-05
0.000108251
0.000143075
0.000183432
0.000229881
0.000283101
0.000344077
0.000414189
0.000495922
0.000594605
0.000722431
0.00090505
0.00112425
0.0013147
0.00128595
0.000916774
1.16769e-10
2.56917e-08
7.09938e-07
5.36784e-06
1.64806e-05
3.25417e-05
5.32518e-05
7.82653e-05
0.000107898
0.000142504
0.000182592
0.000228707
0.000281512
0.000341939
0.000411348
0.000492323
0.000590284
0.000717244
0.000898281
0.0011173
0.00130936
0.00128072
0.00092388
1.19194e-10
2.61024e-08
7.14853e-07
5.3835e-06
1.6478e-05
3.24852e-05
5.31355e-05
7.80503e-05
0.000107536
0.000141947
0.000181759
0.00022752
0.000279883
0.000339779
0.000408567
0.00048884
0.000585836
0.000711064
0.000889495
0.00111121
0.00130626
0.00128153
0.000825821
1.21087e-10
2.64287e-08
7.18601e-07
5.39387e-06
1.64799e-05
3.24435e-05
5.30367e-05
7.78478e-05
0.000107193
0.00014142
0.000180992
0.000226414
0.000278354
0.000337704
0.000405875
0.000485276
0.00058095
0.000704496
0.000881647
0.00110076
0.00129077
0.00126677
0.000902856
1.21445e-10
2.64994e-08
7.19889e-07
5.39575e-06
1.64798e-05
3.24038e-05
5.29452e-05
7.76701e-05
0.000106878
0.00014091
0.000180212
0.00022529
0.000276808
0.000335621
0.000403078
0.000481564
0.00057628
0.000699659
0.000878132
0.00109264
0.00128302
0.00125862
0.000836253
1.19876e-10
2.62377e-08
7.17613e-07
5.38527e-06
1.64561e-05
3.23487e-05
5.28262e-05
7.74561e-05
0.000106534
0.000140398
0.000179423
0.000224157
0.000275238
0.000333485
0.000400242
0.000478064
0.000572671
0.000697058
0.000873528
0.00108264
0.00127113
0.001248
0.000932022
1.18196e-10
2.59726e-08
7.16647e-07
5.38335e-06
1.64274e-05
3.22947e-05
5.27107e-05
7.72354e-05
0.000106174
0.000139843
0.000178626
0.000223022
0.000273639
0.000331346
0.000397543
0.000475
0.000569659
0.000694197
0.000866549
0.0010749
0.00126535
0.00123709
0.000838229
1.20201e-10
2.63137e-08
7.20084e-07
5.39014e-06
1.64077e-05
3.22271e-05
5.26083e-05
7.70413e-05
0.000105831
0.000139299
0.000177818
0.000221857
0.000272044
0.000329254
0.000394973
0.000472002
0.000566024
0.000689101
0.000861735
0.00107072
0.00126433
0.00123832
0.000893709
1.18943e-10
2.60907e-08
7.1634e-07
5.37476e-06
1.63797e-05
3.21632e-05
5.25004e-05
7.68625e-05
0.000105512
0.000138773
0.000177039
0.000220731
0.00027051
0.000327248
0.000392441
0.000468738
0.000561584
0.000683322
0.000856238
0.00106471
0.00126151
0.00123373
0.000800093
1.17649e-10
2.58975e-08
7.15208e-07
5.36697e-06
1.6366e-05
3.21361e-05
5.24096e-05
7.66772e-05
0.000105208
0.000138274
0.000176253
0.000219609
0.000268982
0.000325231
0.000389797
0.000465336
0.000557517
0.000679445
0.000851229
0.00105805
0.0012537
0.0012305
0.000880391
1.197e-10
2.63006e-08
7.19726e-07
5.37553e-06
1.6386e-05
3.21105e-05
5.23135e-05
7.6465e-05
0.000104857
0.000137739
0.00017545
0.000218479
0.000267441
0.000323194
0.000387199
0.000462282
0.000554587
0.000677598
0.000848911
0.00105715
0.00126126
0.00125987
0.000794973
1.21338e-10
2.65719e-08
7.2346e-07
5.38675e-06
1.63719e-05
3.20435e-05
5.22011e-05
7.62623e-05
0.000104525
0.000137226
0.000174678
0.000217353
0.000265905
0.000321214
0.00038484
0.000459799
0.000552393
0.000675805
0.000843902
0.00105102
0.00125669
0.00126359
0.000779176
1.2293e-10
2.67676e-08
7.25686e-07
5.39405e-06
1.63567e-05
3.19936e-05
5.21196e-05
7.61129e-05
0.000104247
0.000136756
0.000173964
0.000216316
0.000264469
0.000319419
0.000382788
0.00045765
0.000550147
0.00067316
0.000837229
0.00104062
0.00124059
0.00123925
0.000814909
1.21693e-10
2.65732e-08
7.2312e-07
5.38977e-06
1.63503e-05
3.19684e-05
5.20643e-05
7.59829e-05
0.000103978
0.000136279
0.000173226
0.000215283
0.000263118
0.000317777
0.000380885
0.000455435
0.000547523
0.000670372
0.000834274
0.00103757
0.00123809
0.00123498
0.000827343
1.21728e-10
2.65786e-08
7.23154e-07
5.38157e-06
1.6333e-05
3.18903e-05
5.19819e-05
7.58003e-05
0.000103646
0.000135732
0.000172439
0.000214249
0.000261843
0.000316235
0.000379067
0.000453299
0.000545225
0.000668703
0.00083453
0.00103998
0.00124437
0.00125059
0.00082998
1.19507e-10
2.61779e-08
7.17447e-07
5.3531e-06
1.62638e-05
3.16806e-05
5.18095e-05
7.55026e-05
0.000103188
0.000135103
0.000171626
0.000213243
0.000260658
0.000314836
0.000377405
0.000451437
0.000543479
0.00066763
0.000834034
0.00104071
0.00125102
0.00127565
0.000799107
1.23685e-10
2.74893e-08
7.56621e-07
5.57768e-06
1.66128e-05
3.22982e-05
5.31917e-05
7.9252e-05
0.000109519
0.00014517
0.000186821
0.000235282
0.000291539
0.000356978
0.00043385
0.000526198
0.000635894
0.000774678
0.000969687
0.00124359
0.00154193
0.001598
0.00115046
1.24554e-10
2.76166e-08
7.59153e-07
5.59932e-06
1.66661e-05
3.24142e-05
5.33908e-05
7.95775e-05
0.000110025
0.000145922
0.000187906
0.000236777
0.000293512
0.000359496
0.000436941
0.000529882
0.000639919
0.000780174
0.000978055
0.00125672
0.00156255
0.00162303
0.00104773
1.25047e-10
2.75881e-08
7.58683e-07
5.60685e-06
1.67009e-05
3.2488e-05
5.35011e-05
7.97727e-05
0.000110353
0.000146431
0.000188654
0.000237802
0.000294861
0.000361223
0.000439056
0.000532399
0.000643305
0.000784622
0.000984539
0.00126574
0.00157077
0.0016388
0.00118896
1.25637e-10
2.77218e-08
7.62349e-07
5.62783e-06
1.67561e-05
3.25951e-05
5.36914e-05
8.00304e-05
0.000110767
0.000147048
0.000189519
0.000238951
0.000296314
0.00036303
0.000441255
0.000535038
0.000646571
0.000788887
0.000990586
0.00127397
0.0015796
0.00164327
0.00111035
1.24773e-10
2.76909e-08
7.64079e-07
5.64707e-06
1.68047e-05
3.2685e-05
5.38761e-05
8.03345e-05
0.000111221
0.000147685
0.000190366
0.000240038
0.000297699
0.000364731
0.000443347
0.000537522
0.00064999
0.000793376
0.000997107
0.00128367
0.00158843
0.0016524
0.00123941
1.18991e-10
2.6074e-08
7.13479e-07
5.30749e-06
1.61033e-05
3.13648e-05
5.11725e-05
7.45061e-05
0.00010177
0.000133174
0.0001691
0.000210064
0.000256766
0.000310233
0.000372196
0.000445923
0.000538055
0.000662808
0.000824876
0.0010261
0.00122951
0.00126108
0.000839756
1.18803e-10
2.60125e-08
7.10006e-07
5.28679e-06
1.6058e-05
3.12585e-05
5.10546e-05
7.43144e-05
0.000101482
0.000132777
0.00016858
0.000209412
0.000255972
0.00030931
0.000371169
0.000444866
0.000537228
0.000662714
0.000825283
0.00102751
0.00123199
0.00126873
0.000926047
1.18168e-10
2.58983e-08
7.08783e-07
5.28281e-06
1.60341e-05
3.1195e-05
5.09368e-05
7.41462e-05
0.000101234
0.00013243
0.000168135
0.000208847
0.00025528
0.000308508
0.000370327
0.00044415
0.000536976
0.000663339
0.000825385
0.00102812
0.00123468
0.00127253
0.000854536
1.17809e-10
2.5818e-08
7.07981e-07
5.27043e-06
1.59914e-05
3.11141e-05
5.08258e-05
7.39841e-05
0.000101008
0.000132128
0.000167749
0.000208362
0.000254684
0.000307825
0.000369665
0.000443724
0.00053699
0.000663935
0.000825138
0.001028
0.0012339
0.00127267
0.00096413
1.16095e-10
2.55188e-08
7.02749e-07
5.25083e-06
1.59467e-05
3.10259e-05
5.07216e-05
7.38317e-05
0.000100795
0.000131851
0.000167377
0.000207894
0.000254131
0.000307236
0.000369164
0.000443452
0.000537099
0.000664539
0.000825981
0.00103015
0.00123959
0.00127708
0.000874741
1.15797e-10
2.54534e-08
6.99559e-07
5.23275e-06
1.59111e-05
3.09446e-05
5.06191e-05
7.3677e-05
0.000100585
0.000131589
0.000167034
0.000207458
0.000253636
0.000306744
0.0003688
0.000443357
0.000537423
0.000665557
0.000826793
0.00103224
0.00124338
0.00128556
0.000961701
1.15608e-10
2.54778e-08
6.98063e-07
5.21279e-06
1.58705e-05
3.08752e-05
5.05357e-05
7.35643e-05
0.000100412
0.000131349
0.000166734
0.000207076
0.000253239
0.000306421
0.000368662
0.000443589
0.000538267
0.000667285
0.000827163
0.00103303
0.00124575
0.0012848
0.000892201
1.16811e-10
2.55855e-08
6.98015e-07
5.20496e-06
1.5831e-05
3.08034e-05
5.04273e-05
7.34587e-05
0.00010027
0.000131123
0.000166443
0.000206778
0.000252977
0.000306306
0.000368827
0.000444203
0.000539508
0.000668713
0.000828681
0.00103622
0.00125063
0.0012892
0.000965209
1.1803e-10
2.5687e-08
6.98536e-07
5.19909e-06
1.58018e-05
3.07447e-05
5.03252e-05
7.33547e-05
0.000100111
0.000130925
0.000166225
0.000206574
0.000252876
0.000306419
0.000369275
0.0004451
0.000540915
0.000669869
0.000830217
0.00104005
0.00125929
0.00129868
0.000901874
1.15916e-10
2.53325e-08
6.91711e-07
5.17161e-06
1.57393e-05
3.06397e-05
5.01747e-05
7.32358e-05
9.9959e-05
0.000130747
0.000166042
0.000206488
0.000252956
0.000306755
0.000369975
0.00044617
0.00054243
0.000670395
0.000830415
0.00104103
0.00125993
0.00129461
0.000967716
1.14265e-10
2.50856e-08
6.88943e-07
5.15616e-06
1.57019e-05
3.05672e-05
5.00596e-05
7.31077e-05
9.97998e-05
0.000130606
0.000165961
0.000206524
0.00025321
0.000307307
0.00037085
0.000447437
0.000544239
0.000671649
0.000832065
0.00104547
0.00126874
0.00129693
0.000957213
1.13499e-10
2.50197e-08
6.86979e-07
5.13013e-06
1.56474e-05
3.04692e-05
4.99046e-05
7.30005e-05
9.9714e-05
0.000130555
0.000166008
0.000206765
0.000253712
0.000308105
0.00037197
0.000448983
0.000546399
0.000672733
0.000833454
0.00104967
0.00127706
0.00130649
0.000844645
1.12961e-10
2.49062e-08
6.85271e-07
5.12235e-06
1.55997e-05
3.03765e-05
4.97901e-05
7.29499e-05
9.97014e-05
0.000130649
0.000166275
0.000207242
0.000254444
0.000309144
0.000373382
0.000450826
0.000548812
0.000673677
0.000834123
0.00105155
0.00127699
0.00130425
0.000979953
1.1126e-10
2.46716e-08
6.83869e-07
5.11721e-06
1.55657e-05
3.03203e-05
4.974e-05
7.29409e-05
9.97798e-05
0.00013087
0.000166685
0.000207889
0.00025535
0.000310342
0.000374919
0.000452765
0.000551172
0.0006756
0.000836401
0.00105733
0.00129173
0.00131956
0.00090931
1.11051e-10
2.463e-08
6.8276e-07
5.11029e-06
1.55579e-05
3.03347e-05
4.98013e-05
7.30519e-05
0.000100013
0.000131264
0.000167273
0.000208703
0.000256401
0.000311654
0.00037653
0.00045475
0.000553673
0.00067605
0.000835283
0.00105618
0.00129376
0.00132016
0.000963311
1.12482e-10
2.48209e-08
6.83455e-07
5.10963e-06
1.55924e-05
3.04214e-05
4.99316e-05
7.32501e-05
0.000100322
0.000131727
0.000167914
0.00020952
0.000257438
0.000312947
0.000378134
0.000456794
0.000556369
0.000677743
0.000835629
0.0010575
0.00129613
0.00128729
0.000921995
1.13647e-10
2.49536e-08
6.82579e-07
5.10342e-06
1.55978e-05
3.044e-05
4.99841e-05
7.34536e-05
0.000100613
0.000132132
0.000168474
0.000210258
0.000258364
0.000314092
0.000379596
0.000458737
0.000559065
0.000683746
0.000846056
0.00107555
0.00133481
0.00133683
0.000864125
1.13413e-10
2.49031e-08
6.82165e-07
5.10624e-06
1.56014e-05
3.04444e-05
5.00037e-05
7.35918e-05
0.000100849
0.000132499
0.000168975
0.000210914
0.000259222
0.000315251
0.000381183
0.000460893
0.000561893
0.000686928
0.000852394
0.00107867
0.00133583
0.00138568
0.00094043
1.13669e-10
2.49434e-08
6.83845e-07
5.11688e-06
1.56349e-05
3.05175e-05
5.01173e-05
7.37938e-05
0.000101145
0.000132903
0.000169527
0.000211647
0.000260187
0.000316542
0.000382952
0.000463255
0.000564902
0.000687689
0.000850757
0.00107497
0.00132627
0.00137156
0.000898176
1.13394e-10
2.49184e-08
6.83205e-07
5.11701e-06
1.56343e-05
3.05248e-05
5.01708e-05
7.39836e-05
0.000101411
0.000133265
0.000169998
0.000212289
0.000261123
0.000317855
0.000384756
0.000465644
0.000567934
0.000691202
0.000855447
0.00108233
0.00133898
0.00138797
0.000846817
1.12234e-10
2.47825e-08
6.83583e-07
5.12318e-06
1.56558e-05
3.05478e-05
5.01842e-05
7.41457e-05
0.000101637
0.00013359
0.00017048
0.000213011
0.000262164
0.000319348
0.000386797
0.000468322
0.000571255
0.000694443
0.000859289
0.00108818
0.00134647
0.00139966
0.000943343
1.10857e-10
2.46536e-08
6.82866e-07
5.12207e-06
1.56634e-05
3.05636e-05
5.02049e-05
7.42694e-05
0.000101833
0.000133894
0.000170982
0.000213805
0.000263329
0.000320992
0.000389012
0.000471165
0.000574239
0.000697408
0.000862844
0.0010938
0.00135698
0.00141622
0.000924915
1.13869e-10
2.50415e-08
6.88293e-07
5.15359e-06
1.56837e-05
3.0581e-05
5.02612e-05
7.44099e-05
0.000102083
0.000134298
0.00017162
0.000214753
0.000264669
0.000322804
0.000391364
0.000474055
0.00057622
0.000698763
0.000863512
0.00109306
0.00135262
0.00140726
0.000902977
1.15886e-10
2.53244e-08
6.9334e-07
5.18192e-06
1.57212e-05
3.06473e-05
5.03676e-05
7.46011e-05
0.000102401
0.000134804
0.000172366
0.000215805
0.000266142
0.000324762
0.000393812
0.000476949
0.000578548
0.000700815
0.000865813
0.00109576
0.00135382
0.00140409
0.000877162
1.16074e-10
2.53745e-08
6.94953e-07
5.19348e-06
1.57469e-05
3.07012e-05
5.04782e-05
7.48267e-05
0.000102758
0.000135364
0.000173178
0.000216945
0.000267688
0.000326764
0.000396262
0.000479827
0.000581428
0.00070425
0.000871003
0.00110445
0.00136663
0.00142084
0.000999598
1.17785e-10
2.56208e-08
6.98218e-07
5.21015e-06
1.57886e-05
3.07711e-05
5.05817e-05
7.50671e-05
0.000103134
0.000135944
0.000174024
0.000218129
0.000269241
0.000328736
0.000398687
0.000482704
0.000584173
0.00070737
0.000875955
0.00111306
0.0013817
0.00144027
0.000892471
1.16302e-10
2.54556e-08
6.96984e-07
5.20506e-06
1.58043e-05
3.08312e-05
5.06815e-05
7.52927e-05
0.000103521
0.000136541
0.000174905
0.000219357
0.00027086
0.00033076
0.000401109
0.000485576
0.000586549
0.000710004
0.000879808
0.00111888
0.00138681
0.00144721
0.000967829
1.1496e-10
2.53442e-08
6.96835e-07
5.21306e-06
1.58334e-05
3.08809e-05
5.07978e-05
7.55273e-05
0.000103919
0.00013716
0.00017579
0.00022056
0.000272435
0.000332725
0.000403477
0.000488353
0.000589073
0.000713038
0.000884617
0.00112645
0.00139601
0.00145398
0.00103754
1.13781e-10
2.51674e-08
6.95145e-07
5.22003e-06
1.58508e-05
3.09156e-05
5.08977e-05
7.5755e-05
0.000104327
0.000137783
0.000176689
0.000221792
0.000274034
0.000334702
0.000405835
0.000491082
0.000591776
0.000716408
0.000890008
0.00113545
0.00140936
0.00146977
0.000932542
1.129e-10
2.51146e-08
6.97876e-07
5.2349e-06
1.58977e-05
3.10252e-05
5.10919e-05
7.60711e-05
0.000104793
0.000138479
0.000177656
0.000223049
0.000275622
0.000336667
0.000408184
0.000493805
0.000593954
0.000719101
0.000894086
0.00114081
0.00141134
0.0014708
0.00105942
1.1483e-10
2.54159e-08
7.03439e-07
5.26477e-06
1.59559e-05
3.11499e-05
5.13108e-05
7.64108e-05
0.000105326
0.000139196
0.000178606
0.000224303
0.000277223
0.000338645
0.000410536
0.000496517
0.000596519
0.000722514
0.000899323
0.00114867
0.00142163
0.0014748
0.00106241
1.16815e-10
2.57159e-08
7.09729e-07
5.30305e-06
1.60182e-05
3.12724e-05
5.15237e-05
7.67121e-05
0.000105786
0.000139866
0.000179518
0.00022553
0.000278792
0.00034054
0.000412749
0.000499119
0.000599265
0.000726469
0.000905271
0.00115756
0.00143432
0.0014861
0.00109154
1.17406e-10
2.59939e-08
7.16039e-07
5.32676e-06
1.60863e-05
3.1388e-05
5.17111e-05
7.70243e-05
0.000106232
0.000140494
0.000180393
0.000226684
0.00028025
0.000342315
0.000414846
0.000501661
0.000602231
0.000730816
0.000911672
0.00116697
0.00144926
0.00149859
0.00103391
1.19498e-10
2.63138e-08
7.20765e-07
5.35322e-06
1.61478e-05
3.1486e-05
5.18643e-05
7.72974e-05
0.000106632
0.000141083
0.000181231
0.000227808
0.000281642
0.000343989
0.000416844
0.000504086
0.000605291
0.000735323
0.000918212
0.00117628
0.00146301
0.00151358
0.0009851
1.21747e-10
2.66418e-08
7.25756e-07
5.38024e-06
1.62003e-05
3.15881e-05
5.20536e-05
7.75757e-05
0.000107042
0.000141698
0.000182098
0.000228933
0.000283035
0.000345655
0.000418835
0.000506403
0.000608225
0.000739511
0.000923869
0.00118343
0.00147119
0.00152225
0.00105326
1.22455e-10
2.6802e-08
7.28818e-07
5.4023e-06
1.62641e-05
3.17118e-05
5.22766e-05
7.78968e-05
0.000107531
0.00014239
0.000183014
0.000230081
0.000284448
0.000347358
0.000420917
0.000508558
0.000611193
0.000743552
0.000928727
0.00118901
0.00147891
0.00152974
0.000968288
1.2322e-10
2.69777e-08
7.33677e-07
5.43936e-06
1.63517e-05
3.18598e-05
5.2517e-05
7.82244e-05
0.000108032
0.000143074
0.000183917
0.000231194
0.000285796
0.000348988
0.000422954
0.000510818
0.000614355
0.000747826
0.000934017
0.00119485
0.0014845
0.00153392
0.00108434
1.22447e-10
2.69596e-08
7.38671e-07
5.47048e-06
1.64106e-05
3.19858e-05
5.2748e-05
7.85226e-05
0.000108492
0.000143721
0.000184742
0.000232219
0.00028704
0.000350564
0.000425002
0.000513599
0.000618205
0.000753234
0.000941707
0.0012066
0.0015079
0.00155793
0.00100816
1.21598e-10
2.69501e-08
7.42421e-07
5.49151e-06
1.64658e-05
3.21156e-05
5.29745e-05
7.8848e-05
0.000108957
0.00014433
0.000185503
0.000233168
0.000288251
0.000352095
0.000427024
0.000515816
0.00062105
0.000756955
0.000946238
0.00121067
0.0015184
0.00157134
0.000982238
1.225e-10
2.70784e-08
7.46301e-07
5.51976e-06
1.65552e-05
3.22877e-05
5.32197e-05
7.91806e-05
0.000109392
0.000144871
0.000186203
0.000234072
0.000289455
0.000353738
0.000429216
0.000518069
0.000623765
0.000759971
0.000949429
0.00121098
0.00151127
0.00155499
0.00116872
1.2302e-10
2.7122e-08
7.48845e-07
5.54616e-06
1.66202e-05
3.23704e-05
5.33041e-05
7.93946e-05
0.000109752
0.000145343
0.000186834
0.000234942
0.000290688
0.00035544
0.000431477
0.000521178
0.000628224
0.000766271
0.00095999
0.00123336
0.00154232
0.00158587
0.00106019
1.23548e-10
2.7248e-08
7.50623e-07
5.56121e-06
1.66492e-05
3.23802e-05
5.32471e-05
7.93379e-05
0.000109987
0.000145702
0.00018741
0.000235842
0.000291975
0.000357182
0.000433728
0.000524313
0.000632625
0.000772353
0.000969447
0.00125131
0.00157145
0.00164283
0.00100216
1.23799e-10
2.73678e-08
7.53866e-07
5.57988e-06
1.66389e-05
3.23326e-05
5.31833e-05
7.9251e-05
0.000110091
0.0001459
0.000187688
0.000236242
0.000292534
0.000357954
0.000434758
0.000526023
0.000634379
0.000773544
0.000969134
0.00124572
0.00155535
0.00162604
0.00101023
2.21207e-10
4.8682e-08
1.28996e-06
8.49129e-06
2.2632e-05
4.28676e-05
6.93727e-05
0.000101979
0.000141965
0.000190351
0.000248206
0.000316723
0.000397225
0.000491415
0.000602016
0.000734382
0.000899745
0.00112088
0.001444
0.00196307
0.00268498
0.00296784
0.00246329
2.22033e-10
4.90684e-08
1.3028e-06
8.56861e-06
2.27865e-05
4.31266e-05
6.97669e-05
0.000102569
0.000142796
0.000191481
0.000249691
0.000318646
0.000399697
0.000494647
0.000606343
0.000740315
0.000907605
0.00112998
0.00145265
0.00197032
0.00272862
0.00306144
0.00258207
2.24802e-10
4.98073e-08
1.31982e-06
8.64625e-06
2.29365e-05
4.33747e-05
7.01663e-05
0.0001031
0.000143486
0.00019238
0.000250895
0.00032025
0.000401866
0.000497593
0.000610329
0.00074542
0.000913142
0.00113425
0.001455
0.00197456
0.00272316
0.00303851
0.0025842
2.30839e-10
5.08209e-08
1.33759e-06
8.7263e-06
2.30878e-05
4.36218e-05
7.05626e-05
0.000103638
0.00014422
0.000193346
0.000252186
0.000322001
0.000404271
0.000500838
0.000614482
0.000750167
0.000917898
0.00113954
0.00146499
0.0019962
0.00272424
0.00302979
0.00261896
2.31673e-10
5.1136e-08
1.34879e-06
8.79077e-06
2.3211e-05
4.38332e-05
7.088e-05
0.000104086
0.000144836
0.000194231
0.000253428
0.000323748
0.000406657
0.000503948
0.000618294
0.000754698
0.000924193
0.00115133
0.00148858
0.00203589
0.0027455
0.00307903
0.00270572
2.34221e-10
5.16903e-08
1.36411e-06
8.85664e-06
2.33197e-05
4.40244e-05
7.11689e-05
0.000104533
0.000145488
0.000195169
0.000254775
0.000325615
0.000409141
0.000507137
0.000622393
0.000760514
0.000933883
0.00116773
0.00151299
0.00206598
0.00276483
0.00310091
0.00274195
2.39148e-10
5.25857e-08
1.38059e-06
8.93557e-06
2.34684e-05
4.42606e-05
7.14869e-05
0.000105023
0.000146202
0.000196201
0.00025623
0.00032759
0.000411742
0.000510546
0.000627066
0.000767441
0.00094363
0.0011781
0.00151842
0.00206259
0.00280108
0.00313905
0.00274553
2.44133e-10
5.34398e-08
1.39551e-06
9.00668e-06
2.36147e-05
4.45316e-05
7.18893e-05
0.000105622
0.000147066
0.000197409
0.000257863
0.000329741
0.000414563
0.000514329
0.000632253
0.000774013
0.000949617
0.00117921
0.00151117
0.00205004
0.00282545
0.00317788
0.00287829
2.46968e-10
5.41442e-08
1.41372e-06
9.08058e-06
2.37744e-05
4.48233e-05
7.23287e-05
0.000106277
0.000148007
0.000198678
0.000259545
0.000331952
0.000417504
0.000518242
0.000637175
0.000779171
0.000953587
0.00118245
0.00151931
0.00207198
0.00284897
0.00318512
0.00281292
2.4677e-10
5.44991e-08
1.42783e-06
9.14982e-06
2.39177e-05
4.50931e-05
7.2777e-05
0.000106928
0.000148916
0.000199911
0.000261173
0.000334154
0.000420446
0.000522028
0.000641717
0.000784428
0.000961303
0.00119833
0.00155286
0.00212974
0.00289036
0.0032723
0.00292541
1.25547e-10
2.77978e-08
7.67685e-07
5.67814e-06
1.6862e-05
3.27992e-05
5.40906e-05
8.06099e-05
0.000111641
0.000148276
0.000191158
0.000241054
0.000298982
0.000366371
0.000445391
0.000540004
0.00065326
0.000797642
0.00100306
0.001293
0.00160099
0.00166209
0.00113699
1.27769e-10
2.82777e-08
7.78221e-07
5.7259e-06
1.69444e-05
3.29316e-05
5.43045e-05
8.0882e-05
0.000112028
0.000148812
0.00019186
0.000241999
0.000300244
0.000367968
0.000447377
0.000542412
0.000656069
0.000801003
0.00100713