/*--------------------------------*- C++ -*----------------------------------*\
  =========                 |
  \\      /  F ield         | OpenFOAM: The Open Source CFD Toolbox
   \\    /   O peration     | Website:  https://openfoam.org
    \\  /    A nd           | Version:  10
     \\/     M anipulation  |
\*---------------------------------------------------------------------------*/
FoamFile
{
    format      ascii;
    class       volScalarField;
    location    "400";
    object      omega;
}
// * * * * * * * * * * * * * * * * * * * * * * * * * * * * * * * * * * * * * //

dimensions      [0 0 -1 0 0 0 0];

internalField   nonuniform List<scalar> 
96890
(
1.25079e+07
1.94773e+06
606732
296889
179881
119158
83634
61262
46347.1
35918.5
28350.3
22698.8
18376.1
14995.2
12296
10093.5
8245.79
6641.57
5209.93
3942.04
2892.17
2130.89
1904
1.24752e+07
1.99494e+06
689813
356476
213412
139373
96972.1
70596.9
53081.3
40871.2
32031
25444.6
20415
16475.4
13291.7
10609.2
8256.46
6194.04
4513.94
3312.45
2617.2
2315.85
2184.81
1.24518e+07
1.99345e+06
690085
356798
213621
139474
97038.1
70643.8
53126.9
40909.1
32063.1
25469.9
20430.7
16479.3
13281.3
10583.8
8222.76
6169.61
4513.54
3327.84
2582.99
2141.65
2046.16
1.2437e+07
1.9383e+06
590674
277968
164957
108727
76667.9
56783.2
43569
34272.8
27448
22271.3
18242.4
15038.6
12450
10316.5
8517.17
6963.62
5585.39
4354.32
3302.41
2506.17
2152.02
1.248e+07
2.1907e+06
612669
229939
127328
89387.9
71432.5
61113.8
53337.6
46826
41588.7
37195.9
33469.9
30306.1
27504.1
24978.2
22720.8
20684.7
18828.3
17132.2
15571.6
14189.1
12826
1.24434e+07
1.93941e+06
593863
283214
170383
113116
79838.6
58911.3
44919.6
35091.2
27916.2
22514.8
18347
15061.8
12422.7
10260.3
8447.83
6881.6
5488.65
4248.44
3203.65
2434.84
2127.32
1.24433e+07
1.9388e+06
592286
281065
168483
111736
78889.5
58295.1
44541.9
34865.7
27785
22442.7
18309.9
15046.2
12421.3
10269.7
8466.83
6910.39
5526.17
4294.35
3254.31
2483.63
2161.3
1.24381e+07
1.94308e+06
603152
293110
177175
117370
82462.4
60509.4
45869.6
35628.3
28189.1
22618.4
18341.4
14989.8
12310.6
10121.5
8285.12
6692.46
5269.69
4004.43
2952.97
2192.14
1964.02
1.24379e+07
1.9424e+06
601784
291598
176013
116608
81926.3
60137.9
45612.4
35454.7
28075.8
22547.8
18301.9
14970.7
12304
10123
8292.69
6705.36
5288.67
4029.86
2982.89
2228.75
1996.47
1.24316e+07
1.94124e+06
600377
290160
174998
115939
81467.8
59833.8
45408.3
35315.9
27983.9
22491.4
18271.8
14957.5
12302.9
10130.1
8305.07
6722.98
5313.09
4062.41
3022.16
2272.88
2028.72
1.24315e+07
1.94061e+06
598908
288670
173969
115294
81086
59590.1
45252.7
35219.5
27926.6
22460.9
18258.9
14957.9
12312.2
10145.8
8326.25
6749.49
5345.98
4102.37
3067.64
2319.99
2060.28
1.24375e+07
1.94081e+06
597428
287010
172926
114642
80700.3
59358
45116.3
35146.8
27892.9
22451
18263.5
14972.2
12332.9
10170.9
8355.29
6783.2
5385.02
4146.55
3114.58
2366.96
2099.06
1.24374e+07
1.94008e+06
595799
285210
171645
113799
80174.8
59047.6
44946.1
35056
27849.6
22437.5
18267.6
14986.9
12354.4
10197.6
8386.8
6820.27
5428.85
4197.41
3170.55
2425.07
2137.04
1.24321e+07
1.94304e+06
604284
294406
177988
117796
82700.5
60648.9
45944.1
35658.8
28189.4
22601.5
18318.6
14965.4
12285.5
10096.7
8259.56
6665.2
5244.76
3988.42
2948.3
2193.49
1966.42
1.27035e+07
1.93786e+06
592397
278135
161373
103771
71960.1
52891.3
40570.7
32060.5
25817
21057.6
17338.3
14368.3
11951.5
9943.05
8269.43
6812.65
5495.87
4311.23
3297.03
2531.5
2195.29
1.24261e+07
1.94256e+06
605072
295364
178675
118249
82986.6
60826.5
46045.3
35709.3
28210.7
22606
18313.3
14954
12270.6
10079.5
8240.1
6643.3
5221.08
3966.13
2928.22
2175.77
1943.4
1.25783e+07
1.96274e+06
617683
306091
185843
122806
85807.2
62567.5
47104.2
36342.2
28571.6
22790.8
18387
14959.4
12234
10015.2
8155.87
6541.02
5098.88
3824.51
2785.92
2061.32
1870.81
1.25049e+07
1.94815e+06
607955
298294
180716
119635
83905.5
61417.6
46421.6
35947.6
28355.2
22690.4
18360.9
14976.7
12276.7
10073.2
8224.65
6620.72
5189.91
3925.12
2881.09
2128.17
1890.67
1.24204e+07
1.94364e+06
608554
299251
181388
120000
84098.7
61531.2
46479.3
35972.9
28363.9
22689.5
18352.6
14963.6
12260.7
10055.9
8206.67
6601.48
5169.9
3905.3
2866.94
2120.67
1879.88
1.24206e+07
1.94386e+06
609581
300286
182085
120411
84341.1
61656.2
46551.3
36011.2
28382.1
22695.8
18348.9
14953.9
12247.9
10041.8
8192.49
6588.05
5157.74
3893.88
2859.94
2118.89
1883.08
1.24207e+07
1.94444e+06
610624
301267
182666
120746
84528.5
61753.6
46606.9
36044.4
28401.5
22701.4
18345.4
14946
12238.3
10031.9
8182.95
6579.48
5150.68
3887.56
2853.13
2116.97
1881.07
1.25014e+07
1.94972e+06
612599
302134
183110
121012
84679.9
61861.8
46677.7
36088.2
28422.9
22708.5
18344.8
14940.6
12231.5
10024.8
8175.56
6571.65
5142.36
3879.52
2843.21
2113.29
1889.36
1.25046e+07
1.94973e+06
613157
302517
183535
121334
84920.6
62035.4
46789.8
36155.9
28459
22726.7
18351.7
14942.5
12230.1
10021.1
8169.54
6563.2
5130.91
3867.69
2833.17
2109.36
1897.12
1.24213e+07
1.94506e+06
613226
303172
184163
121804
85238.6
62229.5
46905.4
36215.6
28489.8
22741
18357.1
14943.1
12227.4
10015.6
8160.97
6551.64
5117.5
3855.09
2826.21
2107.91
1903.56
1.24215e+07
1.94549e+06
614188
304355
184947
122269
85455.4
62325.3
46937.6
36219.9
28481.1
22724.2
18339.5
14926.6
12212
10001.1
8146.73
6536.62
5103.62
3844.64
2820.97
2106.1
1900.01
1.25011e+07
1.95424e+06
615654
305241
185269
122371
85470.2
62303.3
46897.1
36182.2
28449.2
22697
18316.5
14907.1
12195.9
9987.41
8135.33
6527.01
5095.07
3836.59
2812.36
2098.28
1896.57
1.2548e+07
1.96344e+06
626526
315055
192165
126918
88505.8
64355.1
48318.4
37170.9
29132.8
23175.4
18652.8
15147.4
12372.1
10115.8
8217.05
6556.47
5072.73
3775.12
2743.1
2032.58
1847.94
1.24857e+07
1.9573e+06
625910
315160
192317
127006
88564.3
64374.5
48320.9
37162.9
29123.2
23166.4
18645.7
15141.8
12366.4
10109.1
8210.78
6553.83
5075.65
3782.25
2751.33
2038.19
1840.28
1.2578e+07
1.96265e+06
618086
306342
186132
123030
85950.4
62653.3
47155.7
36366.6
28580.2
22792.6
18383.7
14953.6
12227.7
10010.3
8153.1
6540.24
5098.35
3824.19
2787.08
2062.84
1870.54
1.24981e+07
1.95449e+06
617226
306736
186465
123255
86106
62756.5
47230.6
36415.4
28610.7
22811.9
18397.6
14963.3
12235.4
10016.4
8156.67
6540
5093.95
3816.27
2779.36
2058.61
1862.32
1.24162e+07
1.94634e+06
616380
307110
186827
123469
86218.2
62829.2
47276.8
36446.6
28629.7
22823.7
18403.9
14966.9
12236.2
10014.7
8152.43
6533.99
5087.42
3809.81
2774.02
2055.88
1863.39
1.25133e+07
1.95321e+06
618186
307806
187306
123766
86389.8
62929.7
47343.2
36490.6
28660.4
22843.9
18416.5
14972.9
12238.5
10015.3
8153.26
6536.52
5090.49
3812.39
2775.68
2055.28
1857.45
1.25353e+07
1.95549e+06
619002
308504
187668
123954
86526
63017.7
47399.7
36525.4
28683.6
22858.4
18425.6
14978.3
12241.2
10017.8
8157.33
6540.75
5092.88
3813.61
2776.67
2055.02
1852
1.24699e+07
1.95262e+06
619088
309073
188024
124165
86668.2
63107.6
47453.3
36564.1
28706
22870.5
18433
14982.9
12245.2
10021.5
8159.23
6538.13
5087.38
3809.36
2775.12
2055.14
1856.76
1.24733e+07
1.953e+06
620225
309625
188318
124386
86793.6
63188.6
47509
36603.3
28731.9
22886
18441.3
14987.9
12248.7
10022.1
8155.54
6532.54
5084.73
3810.73
2777.41
2055.85
1861.24
1.23926e+07
1.94501e+06
620011
309822
188590
124607
86940.9
63280.4
47566.4
36637.7
28755.6
22903.1
18453.5
14995.6
12252.5
10022.5
8156
6538.84
5096.93
3822.93
2785.05
2057.69
1865.27
1.23319e+07
1.93885e+06
619949
310084
188806
124761
87040.8
63348.3
47611.9
36666.4
28772.1
22914.4
18460.6
15000.7
12254.7
10026
8164.91
6552.33
5107.94
3827.41
2786.22
2057.08
1854.68
1.23321e+07
1.93913e+06
620447
310550
189048
124916
87129.9
63398.9
47644.5
36689.6
28790.4
22927.9
18469.2
15006.7
12260.8
10034
8173.37
6553.16
5096.83
3811.28
2776.18
2054.89
1856.69
1.24082e+07
1.94729e+06
621571
311197
189373
125082
87245.5
63474.6
47692
36718.1
28812.3
22943.5
18480.4
15015.7
12269.3
10039.6
8169.41
6535.46
5072.38
3791.85
2768.12
2053.94
1850.12
1.2488e+07
1.95572e+06
622107
311615
189694
125210
87342.1
63548.4
47743.1
36754.9
28835.6
22959.3
18493.4
15025.3
12274.6
10037.4
8157.99
6520.73
5064.24
3793.23
2773.98
2057.82
1866.23
1.24115e+07
1.94806e+06
621843
311685
189868
125367
87426.3
63605
47790.3
36790.8
28861.5
22979.4
18507.8
15034.5
12278
10035.9
8157.25
6528.95
5080.61
3811.61
2787.03
2062.51
1863.42
1.24696e+07
1.95421e+06
623265
312348
190200
125563
87522.5
63661.1
47835.9
36829.3
28888
22998.8
18520.4
15042.5
12282.8
10042.7
8171.5
6547.99
5095.83
3818.27
2789.4
2065.14
1876.82
1.25352e+07
1.96112e+06
624078
312770
190363
125667
87626.8
63744.2
47887.3
36865
28916.6
23018.8
18533.9
15052.4
12293.4
10055.8
8184.57
6553.37
5088.92
3802.07
2776.92
2063.36
1871.13
1.2456e+07
1.95035e+06
623485
312849
190442
125763
87751.1
63844.6
47954.4
36908.1
28949
23040.9
18549.7
15065.3
12305.6
10065.6
8185.61
6542.81
5072.34
3785.17
2764.13
2061.57
1889.73
1.23946e+07
1.94429e+06
622808
312913
190670
125923
87864.6
63920.4
48005.1
36942.6
28974.2
23061.6
18565.7
15077.6
12313.7
10067.2
8179.55
6534.73
5069.3
3787.57
2764.02
2062.47
1884.38
1.23338e+07
1.94089e+06
622353
313013
190863
126062
87939.4
63965.8
48039.1
36968
28989.3
23070.7
18573
15081.3
12313.5
10063.3
8175.74
6536.45
5077.51
3798.6
2770.58
2065.81
1880.7
1.23951e+07
1.94728e+06
623672
313357
191016
126168
88008.6
64009.2
48069
36988.2
28999.5
23073.2
18572.1
15078.5
12310.6
10063.1
8180.07
6542.16
5080.99
3800.19
2773.31
2068.33
1890.12
1.23953e+07
1.94746e+06
623910
313827
191324
126329
88094.4
64056.1
48089.8
36996.3
28998.3
23067.2
18564.7
15074
12309.4
10066
8184.29
6541.23
5072.86
3790.65
2768.92
2067.59
1895.73
1.24697e+07
1.95521e+06
624712
314304
191668
126507
88158.8
64084.2
48103
36995.3
28992.7
23062.2
18561.1
15073.8
12313.3
10071.1
8186.16
6537.65
5065.16
3782.14
2761.67
2062.05
1892.43
1.24803e+07
1.95175e+06
626449
318252
196353
130361
90870.8
65981.3
49471.8
38009.7
29768.3
23669.6
19051.2
15478.3
12651
10354.7
8428.69
6752.15
5247.51
3915.67
2864.06
2070.06
1870.12
1.24803e+07
1.95451e+06
627252
318559
196516
130404
90891.5
65974.6
49456.8
37991.9
29749.1
23651.9
19035.9
15465.4
12641.2
10348
8425.5
6751.41
5248.03
3917.65
2867.01
2073.94
1875.59
1.24802e+07
1.96041e+06
628217
318966
196652
130495
90970
66009.8
49474.6
38003.9
29757.7
23660.2
19043.9
15472.3
12647.9
10354.9
8431.8
6756.45
5251.32
3920.06
2869.06
2073.37
1860.6
1.24802e+07
1.96049e+06
628297
319078
196688
130537
91003.9
66022.4
49480
38008.1
29761.3
23664.3
19049.3
15477.8
12653.4
10360.2
8437.53
6763.01
5260
3930.5
2877.77
2076.85
1869.06
1.25424e+07
1.96396e+06
629217
319240
196760
130593
91010.3
66016.4
49476.7
38008.8
29766.5
23671.8
19055.8
15484.5
12659.4
10367
8445.62
6773.6
5272.69
3943.55
2888.04
2079.96
1860.44
1.24733e+07
1.9561e+06
625918
315524
192558
127139
88616
64416.2
48339.6
37173.5
29132.9
23173.6
18651.2
15146.4
12370.3
10113.4
8216.91
6560.22
5079.58
3783.34
2751.11
2036.93
1846.12
1.247e+07
1.95592e+06
626782
315892
192781
127288
88677.3
64450.4
48362.5
37190.3
29145.6
23183.3
18659.2
15153.3
12377.1
10120.4
8222.14
6561.52
5076.92
3779.77
2749.01
2036.05
1837.79
1.24851e+07
1.95759e+06
626702
315941
192846
127318
88715.6
64470.7
48380.1
37206.3
29156.8
23192.5
18667.5
15160.7
12383.6
10125.1
8223.28
6559.19
5073.92
3777.37
2747.74
2035.91
1842.54
1.24849e+07
1.95777e+06
626278
316063
192993
127414
88777.3
64511.1
48407.6
37225.4
29168.9
23201.2
18675.2
15168.3
12390
10128.6
8224.74
6560.36
5075.85
3779.24
2749.09
2035.84
1833.32
1.25469e+07
1.96415e+06
627454
316346
193178
127536
88849.4
64558.5
48440.9
37246.4
29186
23214.7
18686.5
15177.8
12397
10134.1
8229.18
6564.74
5079.45
3781.47
2750.53
2036.42
1842.89
1.25467e+07
1.96424e+06
628219
316588
193303
127669
88935.5
64622.6
48484.8
37272
29205
23230.7
18699.5
15188.9
12406.1
10141.5
8235.35
6568.75
5081.16
3782.22
2751.58
2036.83
1835.47
1.25466e+07
1.96142e+06
628808
316990
193516
127791
89009.9
64665.2
48517.8
37297.4
29221.6
23246
18711.9
15199
12414.6
10147.7
8238.4
6569.19
5080.9
3782.36
2752.53
2037.85
1843.78
1.24733e+07
1.95716e+06
627810
316956
193668
127895
89097.8
64715.9
48543.6
37320.6
29241
23259.2
18722.7
15207.3
12420.7
10151.1
8239.61
6570.03
5082.95
3785.01
2754.99
2038.04
1838.05
1.24086e+07
1.95349e+06
627047
316985
193725
127925
89117.5
64739.2
48567.6
37339.2
29254.2
23270.5
18732
15214.6
12425.9
10154.4
8242.59
6573.87
5087.83
3789.43
2758.13
2038.97
1846.57
1.24737e+07
1.95984e+06
628224
317285
193958
128058
89193
64790.6
48600.1
37360.7
29273.3
23283
18741.3
15222
12431
10159.4
8247.67
6578.48
5091.45
3791.86
2760.09
2039.8
1841.53
1.25325e+07
1.96365e+06
628713
317501
194073
128132
89239.8
64839.9
48641.1
37387.9
29292.5
23298.3
18752.9
15230.8
12438.6
10165.4
8251.67
6580.57
5091.62
3791.1
2760.14
2040.25
1854.17
1.25458e+07
1.96173e+06
628785
317829
194295
128310
89371.5
64906.9
48674.4
37412.8
29312.2
23312.4
18763.3
15239.3
12446
10170.1
8253.61
6580.73
5092.33
3792.65
2762.02
2040.67
1856.72
1.25457e+07
1.96169e+06
628308
317800
194478
128458
89453
64939.8
48695.4
37424.6
29318.7
23319.3
18770.4
15245.1
12449
10171.1
8253.48
6582.46
5096.64
3797.61
2766.16
2041.11
1842.25
1.26083e+07
1.96556e+06
628229
317803
194596
128546
89499.2
64964.9
48709.6
37433.8
29326.4
23325.5
18775.9
15249
12450.8
10171.7
8255.59
6587.34
5102.93
3802.83
2769.72
2042.35
1851.98
1.26081e+07
1.96567e+06
628377
317906
194622
128534
89483.9
64960.8
48705.6
37432.3
29327.5
23326.8
18777.4
15250
12451.6
10173
8257.65
6589.85
5103.91
3800.97
2767.61
2042.04
1847.46
1.25452e+07
1.9619e+06
628495
317923
194516
128446
89450.9
64965
48715.6
37439.1
29331.9
23332.2
18780.6
15251.3
12452
10173.1
8257.51
6587.93
5098.81
3793.96
2762.57
2041.33
1862.69
1.24829e+07
1.95789e+06
628548
318084
194618
128513
89478.7
64991.5
48742
37464
29351.1
23345.9
18790.9
15259.6
12458.5
10177.9
8260.2
6589.24
5101.11
3797.17
2766.28
2041.16
1867.81
1.24743e+07
1.95728e+06
627897
317909
194643
128606
89565.4
65053.5
48789.9
37498.3
29378.4
23367.8
18807.8
15271.1
12466.3
10183.9
8266.31
6598.19
5113.98
3811.89
2778.65
2043.85
1863.5
1.2471e+07
1.95731e+06
627814
317851
194631
128611
89602.3
65088.4
48821.7
37526.3
29398.1
23380.8
18816.8
15277.8
12471.2
10188.5
8272.13
6606.36
5121.85
3819.15
2785.13
2045.24
1880.92
1.24744e+07
1.95722e+06
627811
317999
194912
128809
89698.7
65147.6
48864.3
37557.4
29423.4
23400.2
18828.8
15286.7
12478.5
10195.2
8278.98
6611.08
5123.29
3819.86
2787.27
2046.09
1877.62
1.25333e+07
1.96097e+06
628175
318114
194998
128925
89801.2
65209.6
48910
37590.2
29445.2
23414
18839
15293.8
12484.2
10200.2
8282.38
6612.56
5125.27
3822.59
2789.97
2046.53
1860.51
1.26072e+07
1.96524e+06
629200
318517
195173
129030
89878.1
65263.3
48948.5
37620.5
29465.9
23426.8
18848.5
15300.8
12489.4
10204.7
8287.16
6620.9
5139.36
3836.73
2799.66
2048.9
1871.1
1.24744e+07
1.95747e+06
627362
318042
195185
129111
89915.4
65295.8
48968.6
37636.2
29475.9
23433.8
18854.2
15305.5
12493.6
10209.6
8295.22
6634.72
5156.35
3850.86
2808.8
2050.84
1874.32
1.24024e+07
1.95311e+06
626391
317771
195170
129118
89939.7
65318
48984
37644.9
29482.7
23440.1
18857
15306.9
12495.8
10213.9
8302.75
6643.59
5160.64
3850.11
2807.62
2049.85
1868.53
1.24028e+07
1.95319e+06
626374
317824
195259
129178
89974.4
65345.2
49004.4
37655.4
29489.9
23444.8
18859.6
15308.7
12498.7
10218.4
8307.27
6644.03
5154.56
3841.25
2801.55
2047.59
1856.72
1.23419e+07
1.94943e+06
626003
317801
195257
129230
90034.4
65378.7
49027.7
37669.2
29498.2
23449.7
18864.9
15313.8
12503.2
10223
8310.48
6643.77
5152.96
3841.02
2803.31
2048.99
1863.42
1.241e+07
1.95355e+06
626974
318238
195446
129309
90113.4
65432.2
49055.3
37685.4
29507.1
23454.3
18867.8
15316.9
12507.3
10227
8314.02
6648.8
5162.53
3855.15
2817.05
2053.63
1845.34
1.24816e+07
1.95766e+06
628003
318438
195567
129436
90173.7
65476
49079.9
37698.1
29515.6
23461.3
18873.2
15321.9
12511.9
10231.7
8319.68
6658.4
5178.72
3876.36
2835.67
2060.42
1843.99
1.25438e+07
1.96418e+06
629071
318714
195800
129626
90274.7
65517.6
49104.9
37714
29526.1
23467.9
18877.8
15326.1
12516.3
10236.7
8326.76
6669.83
5194.5
3893.16
2849.49
2066.53
1848.02
1.26064e+07
1.96826e+06
629529
318983
195894
129663
90297.5
65534.4
49115.4
37718.4
29528
23471.5
18882.3
15330.2
12520.3
10241.2
8332.88
6677.71
5200.96
3896.44
2851.73
2068.95
1831.58
1.25435e+07
1.96432e+06
628576
318851
195929
129657
90290.9
65524.4
49103.5
37716.7
29531.3
23474.4
18884.7
15332.2
12522.4
10244.2
8336.69
6679.15
5197.37
3890.17
2848.48
2070.36
1836.58
1.24812e+07
1.96085e+06
627636
318499
195898
129628
90284.7
65541.4
49122
37727.9
29539.7
23478.7
18887.4
15335.9
12527.1
10248.7
8339.19
6677.61
5194.18
3889.14
2852.68
2074.16
1846.45
1.24811e+07
1.95489e+06
627175
318444
195836
129653
90297.6
65546.6
49137.4
37741.6
29549.5
23487.5
18895.9
15343.6
12534.1
10253.9
8342.12
6680.34
5199.79
3899.09
2864.78
2080.85
1862.42
1.2414e+07
1.9508e+06
626578
318314
195830
129732
90376.2
65588.3
49168.8
37764.7
29565.6
23499.2
18907.3
15354
12543.2
10261.7
8349.69
6690.08
5210.98
3910.41
2873.81
2087.44
1867.53
1.23447e+07
1.94672e+06
626166
318325
195937
129829
90447.7
65637.5
49199.3
37785.1
29578.6
23510
18917
15363.2
12552.1
10269.8
8358.48
6698.76
5214.76
3910.33
2872
2091.63
1863.18
1.23449e+07
1.94665e+06
626651
318405
195977
129876
90472.9
65646.2
49202.1
37787.7
29583.1
23516.6
18923.5
15369.3
12557.7
10275.2
8363.53
6700.1
5210.8
3903.05
2866.44
2096.27
1870.57
1.23453e+07
1.94664e+06
626649
318278
195922
129881
90477.4
65653.6
49202.6
37791.7
29587.4
23523
18930.1
15376.2
12563.8
10279.4
8364.77
6698.88
5209.64
3900.47
2865.41
2102.9
1865.16
1.24112e+07
1.95059e+06
626469
318305
196025
129913
90489.6
65674
49214.8
37799.9
29597.6
23532.9
18940.4
15383.9
12569.2
10283.2
8367.67
6703.62
5218.14
3907
2870.64
2109.01
1886.64
1.24807e+07
1.95464e+06
626947
318523
196134
129936
90501.9
65678.7
49222.4
37811
29610.8
23545
18949.6
15392.2
12575.3
10287.9
8372.74
6711.41
5227.8
3915.48
2876.95
2106.88
1883.19
1.24806e+07
1.95741e+06
626940
318497
196034
129883
90488.2
65689.7
49244.2
37832.8
29625.6
23554.5
18954.2
15392.7
12574.6
10288.2
8374.19
6712.26
5226.77
3915.72
2876.3
2097.85
1878.89
1.24805e+07
1.96023e+06
626896
318326
196018
129959
90557
65727.7
49271.2
37845.5
29629.6
23552.3
18947.6
15385.4
12568.8
10284.7
8372.06
6708.43
5221.37
3912.93
2872.93
2093.76
1923.54
1.24805e+07
1.95978e+06
627257
318357
196044
130052
90635.2
65742.5
49265.6
37832.5
29609.7
23529.6
18928.2
15372.2
12562.3
10283.6
8374
6712.21
5226.42
3917.07
2874.93
2096.5
1932.35
1.24804e+07
1.95735e+06
627024
318094
195938
130021
90594.8
65713.9
49235.7
37808.2
29599.8
23532.6
18940.7
15390.4
12582.4
10302.4
8390.67
6727.72
5237.98
3921.74
2876.9
2099.15
1916.57
1.24259e+07
1.96113e+06
639360
327343
200513
132867
92954.4
67757.9
50939.9
39213.8
30762.2
24503.6
19762
16091.8
13182.6
10805
8782.79
6991.05
5358.89
3880.37
2708.61
2047.03
1960.69
1.24703e+07
1.96348e+06
640424
327731
200732
132991
93041.5
67802.1
50961.5
39221.6
30763.7
24501.9
19758.7
16085.8
13172.3
10788.9
8764.58
6980.09
5360.68
3889.44
2718.58
2066.63
2132.08
1.24737e+07
1.96214e+06
640908
328072
200859
133048
93050.4
67815
50977.1
39236.3
30773.1
24507.6
19760.3
16083.3
13166
10782.6
8767.32
6998.38
5386.04
3905.26
2727.19
2097.8
2192.57
1.24086e+07
1.95834e+06
640957
328325
200927
133074
93052.9
67815.1
50973.1
39234.9
30771.9
24505.1
19754.6
16075.4
13159.5
10784
8779.66
7012.78
5385.14
3887.56
2714.65
2081.95
1956.29
1.24552e+07
1.96324e+06
642165
328774
201080
133129
93076.9
67831.3
50988.5
39242.8
30777.2
24506.5
19754
16075.5
13163.2
10791.1
8779.96
6989.54
5335.97
3835.68
2679.17
2038.84
1929.96
1.24549e+07
1.96348e+06
642055
329018
201253
133214
93135.5
67857.4
51004.1
39254.3
30783.3
24510.3
19757.7
16079.7
13165.7
10783.6
8750.74
6939.65
5284.48
3802.4
2659.81
2030.86
1933.95
1.2412e+07
1.96112e+06
642236
329113
201270
133253
93165
67874.9
51021.3
39267.6
30793.2
24518
19763.5
16082.2
13160
10763.5
8722.64
6926.06
5299.68
3831.5
2678.99
2053.7
2077.05
1.23666e+07
1.95875e+06
642610
329394
201380
133288
93162.5
67874.5
51023.5
39271.1
30797.3
24521.9
19764.9
16077.6
13147.7
10751.8
8732.36
6970.4
5363.43
3881.55
2709.29
2107.65
2294.03
1.23669e+07
1.95727e+06
642514
329581
201444
133298
93163.5
67876.8
51024.7
39276.3
30802.7
24525.2
19763.6
16072.1
13144.4
10763.6
8765.68
7008.43
5378.58
3870.24
2704.45
2110.47
2012.44
1.24289e+07
1.95914e+06
643172
329923
201616
133349
93182.7
67894.4
51039
39287.4
30812.8
24529.7
19764.4
16074.1
13153.3
10779.4
8770.32
6976.9
5307.92
3795.07
2655.9
2047.22
1932.74
1.25423e+07
1.96676e+06
629373
319211
196798
130611
91003.5
66026.8
49486.3
38018.4
29775
23680.2
19063.9
15491
12665.5
10373.1
8453.43
6782.46
5279.83
3947.52
2890.61
2081.07
1870.5
1.248e+07
1.95752e+06
627588
318676
196615
130556
90986.3
66036.2
49501.2
38032
29788.7
23689.2
19069
15496.1
12671.4
10379.9
8460.46
6787.04
5279.7
3943.18
2886.11
2079.61
1865.31
1.248e+07
1.95188e+06
626613
318551
196483
130531
91028.4
66066.2
49527.5
38052.5
29803.1
23701.4
19079.1
15503.8
12678.6
10387.2
8466.58
6791.23
5281.53
3942.07
2883.94
2080.39
1890.18
1.248e+07
1.95439e+06
627106
318687
196618
130631
91095.7
66113.3
49563.5
38078.1
29821.3
23713.8
19088.9
15513.4
12687.8
10395.7
8475.07
6800.8
5292.13
3952.54
2891.08
2082.87
1897.41
1.24799e+07
1.95465e+06
627161
318740
196761
130763
91182.7
66172.5
49601.9
38099.3
29833.9
23723.5
19097.4
15520.8
12695
10404.2
8485.51
6813.43
5305.63
3966.14
2901.3
2084.79
1889.54
1.24799e+07
1.95707e+06
627235
318781
196873
130854
91256.3
66218.1
49631.1
38121.1
29849.2
23732.7
19104.5
15528.4
12703.4
10414
8496.9
6824.77
5315.55
3974.87
2907.8
2085.88
1890.4
1.24799e+07
1.96009e+06
628103
318929
196924
130893
91273.9
66229.2
49631.9
38123.3
29852.4
23736.8
19109.6
15534.7
12711
10422.6
8505.38
6831.24
5318.94
3976.01
2907.86
2084.48
1876.96
1.24798e+07
1.95477e+06
627366
318958
196845
130801
91213.7
66203.7
49622.7
38115.8
29847.4
23735.1
19110.8
15538.1
12716
10428.1
8509.91
6833.6
5318.39
3972.01
2902.43
2081.8
1876.88
1.24798e+07
1.95458e+06
626770
318982
196816
130756
91209.7
66202.1
49624.4
38118.5
29849.7
23739.1
19116.6
15544.9
12722.8
10434.2
8514.65
6836.88
5318.23
3968.42
2897.41
2080.13
1902.16
1.24176e+07
1.95069e+06
626341
318841
196794
130782
91237.4
66221.4
49637.3
38126
29859.4
23747.7
19125.1
15553.1
12730.9
10441.8
8521.69
6842.83
5321.95
3970.78
2898.72
2079.98
1905.89
1.2353e+07
1.94433e+06
625882
318730
196786
130786
91233.2
66221.2
49638.6
38135.9
29871.1
23759.5
19136.2
15563
12739.5
10449.9
8530.3
6852.23
5332.15
3982.64
2908.37
2082.69
1914.26
1.24146e+07
1.95089e+06
626471
318778
196814
130812
91242.9
66240.2
49654.2
38152.6
29885.3
23771.3
19145.2
15571
12746.9
10458.3
8540.6
6865
5347.25
3999.3
2920.68
2085.23
1906.35
1.24797e+07
1.95467e+06
626892
318773
196793
130785
91236.3
66243.5
49675.7
38168.7
29897.8
23783.7
19155.8
15579.8
12756.4
10469.1
8553.07
6878.24
5359.24
4008.77
2925.83
2087.28
1934.54
1.24797e+07
1.95717e+06
627378
318719
196859
130884
91339
66314.7
49726
38205.2
29922.7
23802.2
19171.3
15593.8
12770.5
10483.2
8566.64
6888.24
5362.14
4006.15
2921.8
2087.06
1946.78
1.24797e+07
1.96005e+06
627634
318795
196891
130962
91410.4
66375.4
49765.3
38233.3
29945.4
23820.7
19187.5
15608.1
12783.7
10495.8
8576.11
6891.71
5358.99
3999.85
2915.89
2086.54
1944.73
1.24797e+07
1.95492e+06
626438
318738
196989
131068
91479.6
66420
49793.8
38253.3
29957.7
23829.4
19196
15617.5
12793
10503
8580.77
6895.48
5363.91
4006.19
2919.37
2086.78
1942.87
1.24797e+07
1.95468e+06
627063
318881
197024
131110
91501.6
66423.1
49797.5
38258.6
29962.1
23833.9
19199
15620.7
12797
10507.7
8588.06
6908.17
5381.99
4025.35
2931.59
2086.73
1934.33
1.24797e+07
1.95508e+06
627808
319131
197098
131110
91481.7
66412.7
49794.9
38256.3
29962.9
23834.5
19201.9
15625.2
12802.3
10516
8601.71
6925.39
5396.14
4035.97
2937.43
2085.8
1922.12
1.25404e+07
1.95863e+06
627807
319191
197177
131145
91482.6
66408.4
49791.6
38255.5
29965.6
23838.4
19206
15630.7
12810.6
10528
8613.96
6929.78
5388.32
4023.74
2928.33
2083.49
1921.21
1.25435e+07
1.96165e+06
628071
319338
197176
131112
91486.6
66420.1
49796.9
38260.7
29970.5
23844.9
19213.2
15639.4
12820.8
10537.7
8616.88
6921.2
5373.11
4010.23
2919.11
2082.27
1938.04
1.24797e+07
1.96065e+06
628381
319290
197033
131018
91466.8
66419.2
49796.7
38260.8
29970.8
23848
19219.6
15647.6
12829.1
10541.9
8615.31
6920.53
5381.78
4024.26
2927.14
2082.63
1932.33
1.24797e+07
1.96047e+06
628860
319254
196917
130945
91456.3
66420.7
49804.8
38272
29984.1
23859.2
19230
15658
12837.5
10549.3
8627.86
6945.31
5414.88
4053.45
2943.07
2084.73
1957.87
1.24797e+07
1.95782e+06
628171
319089
196898
130977
91495.3
66457.8
49830.7
38291.7
30001.4
23875.8
19245.5
15672.3
12851.7
10567.5
8653.4
6972.06
5428.33
4054.73
2940.25
2083.28
1958.68
1.24797e+07
1.96042e+06
628306
319155
196865
130963
91488.6
66462.5
49843
38303.7
30013.2
23888.8
19260.1
15687.1
12868.7
10586.3
8666.38
6963.61
5396.18
4018.49
2915.32
2077.89
1941.53
1.24798e+07
1.96043e+06
628397
319424
197098
131067
91529.5
66484
49862
38323.4
30031.2
23905.9
19276.6
15703.3
12884
10594.2
8656.51
6935.91
5368.08
4002.45
2907.47
2077.06
1953.49
1.2539e+07
1.9642e+06
628896
319537
197162
131100
91547.3
66508.7
49892.7
38352.7
30059.5
23930.8
19298.2
15721.5
12895.9
10595.1
8650.87
6943.38
5402.79
4048.33
2939.38
2082.55
1956.16
1.25421e+07
1.96438e+06
629563
319680
197123
131118
91594.7
66550.3
49925.6
38381.1
30083.1
23953.3
19317.4
15735.6
12904.2
10604.1
8675.69
6995.6
5469.05
4106.4
2973.08
2087.71
1970.88
1.24798e+07
1.95798e+06
629194
319737
197154
131151
91618.2
66587.6
49965.3
38415.3
30109.3
23972.4
19332.6
15747.8
12917.4
10628
8713.52
7030.56
5478.85
4096.1
2958.63
2082.29
1955.92
1.24799e+07
1.95588e+06
628819
319763
197217
131241
91677.6
66623.3
49992.1
38436.9
30128.2
23989.5
19347.8
15763.5
12937.8
10651.1
8722.75
7004.09
5419.3
4031.67
2913.85
2073.93
1946.26
1.24799e+07
1.95567e+06
628519
319615
197164
131195
91689.2
66645.1
50008.5
38453.2
30143.5
24001
19359.1
15777.1
12950.3
10649.8
8694.79
6956.01
5374.83
4002.38
2896.25
2070.14
1942.54
1.24799e+07
1.95848e+06
628773
319883
197398
131330
91776.9
66706.6
50043.8
38477.1
30164.2
24018.5
19373.8
15789.2
12952.9
10637.9
8679.74
6963.41
5413.75
4052.19
2929.52
2075.4
1951.81
1.248e+07
1.95858e+06
629533
320295
197522
131378
91795
66714
50059.5
38490.9
30176.8
24032.3
19386
15795.2
12952.5
10641.9
8707.29
7020.67
5482.16
4111.61
2965.13
2079.98
1941.91
1.24181e+07
1.95271e+06
629287
320341
197559
131415
91809.8
66720.1
50058.7
38492.4
30180.9
24036.9
19388.1
15795.2
12958
10663.2
8743.1
7049.69
5486.54
4101.79
2954.65
2076.95
1935.24
1.24751e+07
1.95593e+06
629853
320392
197470
131384
91792.6
66721
50068.6
38499
30186.4
24041.9
19392.1
15801.1
12971
10680
8744.97
7020.07
5435.11
4051.08
2920.19
2071.15
1938.39
1.25985e+07
1.9659e+06
631334
320714
197520
131387
91796.4
66733.7
50088.4
38515.8
30196.9
24048
19398.4
15810.5
12979.7
10676
8720.1
6985.53
5409.64
4035.91
2909.83
2069.08
1945.67
1.25405e+07
1.95997e+06
630385
320492
197526
131415
91830.9
66774.2
50115.3
38537.2
30211.9
24059.2
19407.7
15818
12979.9
10666.6
8712.47
6997.33
5439.96
4067.66
2927.49
2070.02
1937.73
1.24802e+07
1.95627e+06
630151
320677
197709
131499
91909.9
66831.3
50151
38556.8
30223.8
24068.9
19416.2
15823
12981.4
10672.8
8735.08
7033.98
5474.34
4092.07
2939.34
2070.95
1935
1.24803e+07
1.95906e+06
630538
321056
197905
131575
91959.3
66855.7
50161.6
38563.8
30229
24072.7
19418.8
15824.8
12987.9
10689
8755.38
7043.22
5466.8
4078.52
2928.66
2068.59
1923.12
1.24803e+07
1.95915e+06
631190
320998
197807
131539
91918.4
66839.3
50153.4
38558.1
30225.8
24069.2
19418.3
15828.5
12995.9
10696
8750.81
7022.99
5441.05
4055.92
2912.54
2066.22
1932.13
1.24804e+07
1.95921e+06
631341
321113
197865
131561
91919.8
66838.6
50155
38559.1
30227
24073.5
19423.7
15835.9
13001.3
10693.6
8740.91
7014.75
5441.54
4058.76
2912.2
2066.52
1945.79
1.24805e+07
1.95939e+06
630454
321062
197837
131509
91909.7
66830.3
50146.9
38557.5
30231
24081
19432.2
15841.8
13003.5
10693.1
8744.67
7027.57
5456.98
4068.72
2914.51
2066.96
1952.67
1.24806e+07
1.95948e+06
630636
321184
197848
131471
91873.6
66813.5
50147
38559.7
30236.8
24087.6
19438.9
15846.6
13006.7
10699.7
8755.77
7036.6
5456.9
4061.61
2906.42
2066.68
1962.22
1.25361e+07
1.96298e+06
631587
321444
197814
131376
91824.2
66791.8
50140.4
38565
30245.5
24095.6
19443.9
15850.1
13011.4
10705.6
8757.73
7028.64
5442.65
4047.82
2896.33
2066.15
1963.58
1.24768e+07
1.95655e+06
631520
321156
197633
131311
91803.8
66789.6
50147.6
38579.8
30260.2
24107.1
19452.7
15857.7
13017.8
10708
8754.31
7023.84
5442.61
4051.05
2898.26
2068.14
1982.24
1.24189e+07
1.95311e+06
630646
320890
197613
131378
91877.4
66856.2
50196.4
38616
30287.1
24127.1
19468.2
15870.5
13027
10714.3
8762
7037.88
5462.44
4069.41
2909.51
2070.91
1992.57
1.24189e+07
1.95319e+06
630240
320919
197779
131535
91983.2
66930.1
50250.6
38653.1
30313.4
24147.6
19484.4
15883.3
13038.1
10726.5
8777.53
7055.2
5476.89
4078.86
2914.08
2071.85
1983.02
1.2419e+07
1.95331e+06
630502
321221
197975
131649
92061.6
66974.3
50284.3
38677.1
30329.9
24161.5
19495.8
15891.9
13046.3
10735.5
8785.26
7056.29
5470.53
4069.74
2906.2
2070.23
1974.43
1.24811e+07
1.95988e+06
631324
321623
198164
131684
92057
66969.8
50286
38677.8
30329.1
24160.2
19494.9
15892.9
13048.5
10736.5
8781.04
7045.98
5458.11
4056.64
2894.58
2067.61
1970.35
1.24812e+07
1.95999e+06
631967
321923
198216
131682
92058
66976.2
50287.8
38680.7
30331.7
24161.6
19495.9
15894.1
13049.2
10734.9
8777.24
7042.82
5457.15
4053.59
2888.97
2066.78
1975.96
1.25352e+07
1.9634e+06
632983
322341
198318
131721
92067.9
66987.4
50295.9
38683.7
30332.4
24164.2
19500.7
15899.1
13052.6
10737.7
8781.26
7049.28
5464.06
4056.69
2887.75
2067.36
1987.83
1.25384e+07
1.96355e+06
632745
322151
198256
131728
92071
66986.4
50296.8
38687.6
30339.4
24171.2
19506.3
15903.9
13057.7
10743.4
8787.75
7055.14
5467.99
4058.03
2886.51
2067.56
1990.02
1.24815e+07
1.96051e+06
632625
322149
198118
131630
92033.8
66978.6
50291.9
38688.3
30345.7
24178.6
19511.9