/*--------------------------------*- C++ -*----------------------------------*\
  =========                 |
  \\      /  F ield         | OpenFOAM: The Open Source CFD Toolbox
   \\    /   O peration     | Website:  https://openfoam.org
    \\  /    A nd           | Version:  10
     \\/     M anipulation  |
\*---------------------------------------------------------------------------*/
FoamFile
{
    format      ascii;
    class       volScalarField;
    location    "400";
    object      p;
}
// * * * * * * * * * * * * * * * * * * * * * * * * * * * * * * * * * * * * * //

dimensions      [0 2 -2 0 0 0 0];

internalField   nonuniform List<scalar> 
96890
(
94.7503
94.7473
94.75
94.7519
94.7511
94.756
94.7595
94.7664
94.7747
94.7851
94.7992
94.817
94.8372
94.8632
94.8974
94.94
94.9951
95.0692
95.1735
95.3249
95.541
95.8343
96.7575
-219.712
-219.712
-219.711
-219.708
-219.704
-219.696
-219.686
-219.671
-219.651
-219.625
-219.59
-219.545
-219.489
-219.417
-219.328
-219.215
-219.076
-218.905
-218.701
-218.457
-218.175
-217.841
-217.67
-220.424
-220.424
-220.423
-220.421
-220.418
-220.411
-220.402
-220.389
-220.371
-220.347
-220.314
-220.27
-220.213
-220.138
-220.04
-219.913
-219.748
-219.533
-219.249
-218.888
-218.417
-217.805
-217.308
148.032
148.031
148.029
148.026
148.021
148.017
148.014
148.021
148.039
148.073
148.135
148.232
148.383
148.616
148.934
149.338
149.858
150.451
151.071
151.656
152.085
152.091
151.299
169.231
169.425
169.696
170.08
170.602
171.273
172.121
173.196
174.642
176.492
178.692
181.318
184.33
187.57
191.013
194.517
197.799
200.599
202.718
203.934
204.016
202.275
199.635
137.565
137.565
137.565
137.567
137.568
137.574
137.579
137.588
137.601
137.615
137.637
137.663
137.694
137.734
137.782
137.841
137.91
137.99
138.075
138.16
138.204
138.137
138.116
143.932
143.932
143.932
143.933
143.936
143.938
143.949
143.963
143.983
144.013
144.051
144.101
144.166
144.247
144.348
144.469
144.612
144.777
144.961
145.151
145.29
145.218
145.009
107.124
107.124
107.124
107.125
107.128
107.129
107.133
107.139
107.146
107.154
107.164
107.176
107.19
107.206
107.223
107.242
107.26
107.279
107.298
107.311
107.315
107.287
107.181
111.669
111.669
111.669
111.67
111.672
111.675
111.679
111.683
111.691
111.7
111.71
111.722
111.737
111.754
111.771
111.79
111.809
111.826
111.841
111.844
111.816
111.71
111.528
116.32
116.32
116.32
116.322
116.324
116.327
116.332
116.338
116.346
116.356
116.369
116.384
116.4
116.421
116.442
116.464
116.487
116.509
116.527
116.538
116.519
116.423
116.37
121.209
121.209
121.209
121.211
121.213
121.216
121.219
121.226
121.233
121.242
121.252
121.263
121.275
121.287
121.298
121.304
121.304
121.293
121.261
121.193
121.051
120.731
120.087
126.41
126.41
126.41
126.412
126.413
126.418
126.421
126.428
126.438
126.448
126.46
126.473
126.488
126.504
126.519
126.532
126.54
126.539
126.524
126.481
126.386
126.191
125.721
131.982
131.983
131.983
131.984
131.988
131.991
131.997
132.005
132.013
132.026
132.04
132.056
132.074
132.094
132.114
132.132
132.147
132.154
132.143
132.1
131.981
131.723
131.101
102.75
102.75
102.751
102.753
102.752
102.756
102.76
102.766
102.772
102.782
102.794
102.807
102.822
102.839
102.859
102.876
102.892
102.903
102.903
102.88
102.82
102.606
102.106
149.886
150.057
150.321
150.711
151.251
151.966
152.828
153.793
154.814
155.856
156.882
157.869
158.725
159.416
160.126
160.971
161.824
162.627
163.307
163.741
163.778
163.269
162.042
98.8624
98.8627
98.8631
98.8625
98.8656
98.8674
98.8718
98.8768
98.885
98.8943
98.9064
98.922
98.9406
98.9633
98.9924
99.0269
99.0681
99.1186
99.181
99.2534
99.3239
99.2469
99.2425
61.8151
61.8149
61.8154
61.8153
61.8177
61.8188
61.8215
61.8254
61.8306
61.837
61.8443
61.8534
61.8633
61.8742
61.884
61.8917
61.8937
61.8832
61.8492
61.7518
61.5606
61.295
59.4285
90.5277
90.5313
90.53
90.5308
90.5327
90.5353
90.54
90.5462
90.5523
90.5619
90.5725
90.5856
90.5991
90.6144
90.6307
90.6464
90.6587
90.6643
90.6584
90.6295
90.5461
90.3654
90.1047
86.9123
86.9124
86.9129
86.9131
86.9146
86.9179
86.9221
86.9266
86.9329
86.94
86.95
86.9617
86.9737
86.9888
87.0049
87.0213
87.0368
87.0502
87.0565
87.0433
86.9773
86.8092
86.352
83.3526
83.353
83.3533
83.3536
83.3549
83.3579
83.3621
83.3653
83.3714
83.3785
83.3884
83.3989
83.4126
83.4294
83.4484
83.4712
83.4985
83.532
83.5747
83.6273
83.686
83.778
83.9362
79.7859
79.7862
79.7865
79.787
79.7883
79.7918
79.7935
79.7985
79.8039
79.8104
79.8181
79.827
79.8375
79.8479
79.8585
79.8674
79.8739
79.875
79.8662
79.836
79.7773
79.6722
79.3411
76.6414
76.6394
76.6423
76.6407
76.6436
76.6443
76.648
76.6526
76.6574
76.6648
76.6725
76.6827
76.6935
76.7066
76.7195
76.7324
76.7431
76.7488
76.7417
76.7083
76.6356
76.3884
75.7889
73.8492
73.8517
73.8497
73.8515
73.8525
73.8545
73.8585
73.8622
73.8698
73.8781
73.8904
73.905
73.9245
73.9497
73.9819
74.0228
74.0758
74.1451
74.2353
74.3544
74.4999
74.544
74.8699
70.8509
70.8511
70.852
70.8518
70.8536
70.8563
70.8598
70.8661
70.8732
70.8838
70.8977
70.9153
70.9395
70.9707
71.0126
71.0685
71.1439
71.2483
71.3943
71.6127
71.9087
72.3273
73.4983
67.5094
67.5097
67.5086
67.5111
67.5109
67.5152
67.5187
67.5241
67.5306
67.5402
67.5507
67.5647
67.5814
67.6013
67.6255
67.6544
67.6891
67.731
67.7827
67.8529
67.8901
67.9994
68.2529
64.38
64.3793
64.3799
64.3808
64.3821
64.3844
64.3875
64.3915
64.3969
64.4032
64.4095
64.4173
64.4253
64.4323
64.4373
64.4388
64.4331
64.415
64.3784
64.3043
64.1402
64.1093
63.7144
12.366
12.3662
12.3671
12.3664
12.368
12.3693
12.372
12.3747
12.3796
12.3847
12.3923
12.4016
12.413
12.4267
12.4426
12.461
12.4817
12.5021
12.5215
12.5348
12.5211
12.4867
12.3131
10.4215
10.4215
10.421
10.4226
10.423
10.4247
10.4269
10.43
10.434
10.4394
10.446
10.4539
10.464
10.4762
10.4902
10.5068
10.5256
10.5451
10.5633
10.5754
10.5626
10.5224
10.25
59.5636
59.5631
59.5635
59.5645
59.5657
59.5671
59.5699
59.5741
59.5803
59.5882
59.5992
59.6132
59.6327
59.6583
59.6935
59.7419
59.8093
59.9062
60.048
60.264
60.6361
61.2818
62.1287
56.7439
56.7447
56.7446
56.746
56.7459
56.7484
56.751
56.7548
56.7598
56.767
56.7763
56.7873
56.8011
56.8184
56.8391
56.8639
56.8928
56.9261
56.9613
56.9971
57.0144
56.944
56.8696
54.3526
54.353
54.3533
54.3535
54.3555
54.3568
54.3605
54.3655
54.3712
54.3799
54.3903
54.4042
54.4215
54.4437
54.4728
54.5092
54.5561
54.6178
54.698
54.8042
54.9373
55.0885
55.2939
51.7045
51.7027
51.7052
51.7042
51.706
51.7082
51.7122
51.7167
51.7238
51.7319
51.7438
51.7574
51.7758
51.7991
51.8281
51.8636
51.9089
51.9672
52.0406
52.1345
52.2432
52.3647
52.5291
49.2042
49.2064
49.2046
49.2073
49.2068
49.2093
49.2126
49.2168
49.2224
49.2304
49.2394
49.2512
49.2659
49.2841
49.307
49.3341
49.3675
49.4094
49.4612
49.5273
49.6055
49.7258
49.8998
46.7679
46.7676
46.7688
46.7682
46.7695
46.7715
46.7738
46.7776
46.7823
46.7884
46.7956
46.8052
46.8162
46.8298
46.8462
46.8646
46.8851
46.9061
46.9258
46.935
46.9101
46.823
46.4831
44.4964
44.4965
44.4967
44.4969
44.4984
44.5006
44.5029
44.5076
44.513
44.5204
44.5302
44.5428
44.5585
44.5785
44.6043
44.6367
44.6784
44.7323
44.804
44.8969
45.012
45.1745
45.3476
42.1291
42.1298
42.1301
42.1295
42.1319
42.1327
42.1364
42.1405
42.1462
42.1534
42.1632
42.1756
42.191
42.2108
42.2359
42.268
42.3081
42.3593
42.4251
42.5086
42.6089
42.7481
42.8881
39.8429
39.8433
39.8431
39.8436
39.8445
39.8469
39.8493
39.8539
39.8595
39.8672
39.8766
39.8893
39.9047
39.9247
39.95
39.9823
40.0225
40.0729
40.136
40.2131
40.3008
40.3948
40.3927
37.5633
37.5636
37.5635
37.564
37.5655
37.5673
37.5703
37.5748
37.5806
37.5879
37.5981
37.6099
37.6261
37.6461
37.6715
37.7038
37.7436
37.7936
37.8578
37.9414
38.0484
38.1879
38.3509
35.3507
35.3502
35.3498
35.3517
35.3515
35.3536
35.3561
35.3589
35.3634
35.3691
35.3759
35.3851
35.3967
35.4104
35.4278
35.4494
35.4748
35.5041
35.5391
35.5774
35.6141
35.6283
35.5627
33.209
33.2089
33.2087
33.2096
33.2115
33.2119
33.2155
33.2186
33.2236
33.2302
33.2388
33.2497
33.2634
33.2804
33.3019
33.3284
33.3608
33.4003
33.449
33.5038
33.5628
33.5994
33.6109
31.0901
31.0905
31.0919
31.0907
31.092
31.0949
31.0965
31.101
31.1063
31.1129
31.1219
31.1339
31.1488
31.1683
31.1927
31.2243
31.2642
31.3156
31.3821
31.4632
31.574
31.6968
31.8503
28.9606
28.9599
28.9591
28.9613
28.962
28.9629
28.966
28.9699
28.9745
28.981
28.9894
29.0004
29.0144
29.0318
29.0536
29.081
29.1153
29.1582
29.2114
29.2764
29.3752
29.4523
29.5609
26.945
26.9455
26.9461
26.946
26.9464
26.9493
26.9519
26.9559
26.9621
26.9695
26.9796
26.9924
27.0096
27.0307
27.0572
27.0911
27.1325
27.181
27.2376
27.3007
27.3613
27.2773
27.2258
25.0239
25.0235
25.0245
25.0234
25.0259
25.027
25.0301
25.034
25.04
25.0486
25.0598
25.0744
25.0944
25.1207
25.1557
25.2031
25.2665
25.3517
25.4699
25.6388
25.8751
26.1828
27.0335
22.7806
22.7823
22.7807
22.7823
22.7832
22.7849
22.7874
22.7908
22.7966
22.8038
22.8127
22.8245
22.8399
22.8599
22.8853
22.9171
22.958
23.0105
23.0802
23.1704
23.2804
23.4342
23.7448
20.6164
20.6168
20.6167
20.6168
20.6189
20.6202
20.6221
20.6261
20.6308
20.6373
20.6451
20.6545
20.6666
20.6818
20.7003
20.7218
20.7477
20.7777
20.8116
20.8445
20.8797
20.9103
20.7948
18.5947
18.5946
18.5947
18.5953
18.596
18.5977
18.6
18.6026
18.6075
18.6136
18.621
18.6309
18.6431
18.6587
18.6776
18.701
18.729
18.7617
18.7969
18.8314
18.8748
18.8424
18.5996
16.687
16.6877
16.6873
16.6881
16.6887
16.6909
16.6936
16.6981
16.7039
16.7116
16.7229
16.7374
16.7562
16.7813
16.8137
16.8567
16.9122
16.9844
17.0781
17.2013
17.3567
17.4385
17.7408
14.5994
14.5986
14.5985
14.5996
14.6003
14.6025
14.6059
14.6106
14.6166
14.6256
14.6369
14.6523
14.6722
14.6985
14.7333
14.7803
14.8434
14.9289
15.049
15.2244
15.4735
15.8605
16.8783
-55.2134
-55.2132
-55.2129
-55.2125
-55.2118
-55.2108
-55.2084
-55.2063
-55.2025
-55.1978
-55.1919
-55.1842
-55.1746
-55.1626
-55.148
-55.1303
-55.1105
-55.0877
-55.0655
-55.0472
-55.0513
-55.0789
-55.3861
-56.4934
-56.493
-56.4933
-56.4929
-56.4923
-56.4913
-56.4897
-56.4876
-56.4845
-56.4805
-56.4751
-56.4678
-56.4581
-56.4452
-56.4283
-56.4061
-56.3772
-56.3393
-56.29
-56.2255
-56.1405
-56.0159
-55.9089
-57.8053
-57.8051
-57.806
-57.8051
-57.8053
-57.8039
-57.8027
-57.8011
-57.7982
-57.7946
-57.7898
-57.7829
-57.7738
-57.7619
-57.7465
-57.7263
-57.7005
-57.6677
-57.6268
-57.5774
-57.5225
-57.4451
-57.4175
-59.043
-59.0438
-59.0433
-59.0438
-59.0426
-59.042
-59.0411
-59.0393
-59.0365
-59.0328
-59.0272
-59.0202
-59.0101
-58.9969
-58.9792
-58.9564
-58.927
-58.8898
-58.8425
-58.7841
-58.7114
-58.6008
-58.5182
-60.3004
-60.3008
-60.3007
-60.3001
-60.2992
-60.2977
-60.2954
-60.2923
-60.2879
-60.2821
-60.2746
-60.2643
-60.2511
-60.2342
-60.2123
-60.1844
-60.1486
-60.103
-60.046
-59.9759
-59.8945
-59.8019
-59.8223
8.54005
8.54009
8.54084
8.54059
8.54145
8.54282
8.54429
8.54796
8.5513
8.55663
8.56279
8.57114
8.58208
8.59576
8.6127
8.63361
8.65993
8.69225
8.73123
8.77905
8.83277
8.91016
8.93471
6.6787
6.67877
6.67891
6.67874
6.68023
6.68171
6.68471
6.68779
6.69305
6.69896
6.70707
6.71753
6.73107
6.74782
6.76878
6.79472
6.82695
6.86676
6.91581
6.97578
7.04104
7.12015
7.12893
4.89237
4.89234
4.89193
4.89348
4.89404
4.89568
4.898
4.90136
4.90591
4.91141
4.91888
4.92892
4.94198
4.95862
4.97938
5.00524
5.03786
5.07897
5.13095
5.19859
5.28104
5.41125
5.57231
3.14048
3.14036
3.14085
3.14145
3.14231
3.14392
3.14643
3.15002
3.15495
3.16104
3.16931
3.18012
3.19396
3.21096
3.23182
3.2572
3.2873
3.32255
3.36303
3.40642
3.44142
3.47122
3.34569
1.54309
1.54263
1.54321
1.5433
1.54462
1.54558
1.54768
1.55059
1.55472
1.56018
1.56783
1.57762
1.59103
1.60798
1.63001
1.6587
1.69596
1.74389
1.80663
1.89007
1.99609
2.146
2.28447
-0.16199
-0.161864
-0.161297
-0.161367
-0.160628
-0.158931
-0.157545
-0.154201
-0.15028
-0.144749
-0.136969
-0.126896
-0.114403
-0.0977418
-0.0768104
-0.0502926
-0.017115
0.0239719
0.0770541
0.144276
0.223797
0.330358
0.438269
-1.76864
-1.76978
-1.76883
-1.76899
-1.7678
-1.76725
-1.76482
-1.76276
-1.75891
-1.75355
-1.74675
-1.73777
-1.72581
-1.71062
-1.69113
-1.66638
-1.63512
-1.59624
-1.5474
-1.48645
-1.41846
-1.32616
-1.27153
-3.39249
-3.39038
-3.3928
-3.39122
-3.39135
-3.38983
-3.38788
-3.38467
-3.38039
-3.37463
-3.36655
-3.35558
-3.34156
-3.32287
-3.29935
-3.26928
-3.23017
-3.1805
-3.11616
-3.03387
-2.93918
-2.83173
-2.80415
-5.04052
-5.04194
-5.04075
-5.04104
-5.04038
-5.03909
-5.03722
-5.03493
-5.03093
-5.02544
-5.01829
-5.00889
-4.99577
-4.9794
-4.95784
-4.92916
-4.89167
-4.84083
-4.77169
-4.67525
-4.54823
-4.33056
-3.9358
-6.7373
-6.7365
-6.73759
-6.73725
-6.73607
-6.73543
-6.7333
-6.72998
-6.72624
-6.72099
-6.71347
-6.70384
-6.69166
-6.6766
-6.65747
-6.6338
-6.60534
-6.57072
-6.53156
-6.49212
-6.47013
-6.45805
-6.66061
-8.30353
-8.30542
-8.30395
-8.30384
-8.30365
-8.30148
-8.29935
-8.29631
-8.29182
-8.28466
-8.27636
-8.26519
-8.25019
-8.23105
-8.20584
-8.17319
-8.13054
-8.07381
-7.99767
-7.89346
-7.75357
-7.55071
-7.3699
-9.92211
-9.92125
-9.92183
-9.92175
-9.92123
-9.92009
-9.91841
-9.9162
-9.91234
-9.90799
-9.90219
-9.89415
-9.88354
-9.8702
-9.85328
-9.83134
-9.80378
-9.76805
-9.72404
-9.66319
-9.59695
-9.51864
-9.39336
-11.4362
-11.437
-11.4368
-11.4362
-11.4356
-11.4348
-11.4327
-11.4296
-11.4256
-11.4205
-11.4138
-11.4046
-11.3924
-11.377
-11.3569
-11.3309
-11.2974
-11.2545
-11.2022
-11.1301
-11.0838
-11.047
-11.03
-13.0469
-13.0469
-13.0464
-13.0458
-13.0454
-13.0443
-13.0421
-13.039
-13.0348
-13.0295
-13.0228
-13.0137
-13.0014
-12.9857
-12.9644
-12.9364
-12.899
-12.8461
-12.7721
-12.6548
-12.5444
-12.2585
-11.7344
-14.7313
-14.7313
-14.7309
-14.7304
-14.73
-14.7292
-14.7276
-14.7255
-14.7233
-14.7203
-14.7171
-14.7133
-14.7093
-14.7056
-14.7021
-14.7005
-14.7016
-14.7085
-14.7298
-14.7625
-14.8713
-14.7746
-14.8966
-15.8806
-15.8801
-15.8799
-15.8797
-15.8794
-15.8786
-15.877
-15.8753
-15.8724
-15.8688
-15.8643
-15.8585
-15.8512
-15.8426
-15.8327
-15.8233
-15.815
-15.8151
-15.8344
-15.8671
-15.9811
-16.2263
-17.9799
-17.0192
-17.0193
-17.0191
-17.0189
-17.018
-17.016
-17.0138
-17.0098
-17.005
-16.9975
-16.9868
-16.9724
-16.9522
-16.9243
-16.8851
-16.8299
-16.7514
-16.638
-16.4691
-16.1843
-15.7226
-15.0295
-14.0814
-18.6986
-18.6984
-18.6988
-18.698
-18.6971
-18.6956
-18.693
-18.6899
-18.6849
-18.6787
-18.6703
-18.6594
-18.6451
-18.627
-18.6036
-18.5753
-18.5406
-18.4968
-18.4444
-18.388
-18.3274
-18.284
-18.2989
-20.0135
-20.0137
-20.013
-20.013
-20.0121
-20.0112
-20.0092
-20.0066
-20.0029
-19.9976
-19.9901
-19.9806
-19.968
-19.951
-19.9286
-19.8992
-19.8601
-19.8076
-19.7366
-19.6423
-19.5201
-19.3555
-19.2679
-21.5848
-21.5845
-21.585
-21.5843
-21.5835
-21.5822
-21.5803
-21.5772
-21.5732
-21.5675
-21.5598
-21.5498
-21.5359
-21.5182
-21.4951
-21.465
-21.4263
-21.376
-21.3119
-21.2306
-21.1297
-21.0237
-20.9848
-23.0837
-23.0849
-23.0836
-23.0835
-23.0829
-23.0811
-23.0782
-23.0749
-23.0692
-23.0621
-23.0521
-23.0391
-23.0212
-22.9981
-22.9669
-22.9253
-22.8701
-22.7951
-22.6937
-22.5546
-22.3721
-22.1469
-21.8427
-24.798
-24.798
-24.7978
-24.7974
-24.7964
-24.7945
-24.7922
-24.7881
-24.7834
-24.7766
-24.7676
-24.7552
-24.739
-24.7181
-24.6902
-24.653
-24.604
-24.5361
-24.443
-24.3111
-24.1371
-23.8667
-23.3507
-26.555
-26.5527
-26.5548
-26.5533
-26.5522
-26.5509
-26.5481
-26.5448
-26.5404
-26.535
-26.5277
-26.5183
-26.5072
-26.4936
-26.477
-26.457
-26.4327
-26.4047
-26.3732
-26.3432
-26.3278
-26.3144
-26.4379
-28.101
-28.1019
-28.1007
-28.1003
-28.0995
-28.0984
-28.0955
-28.0924
-28.0881
-28.083
-28.076
-28.0674
-28.0566
-28.0432
-28.027
-28.0076
-27.9841
-27.9565
-27.9266
-27.8973
-27.8821
-27.8646
-28.0612
-29.5494
-29.5485
-29.5492
-29.5481
-29.5474
-29.5457
-29.5435
-29.5399
-29.5353
-29.5294
-29.5218
-29.5116
-29.4985
-29.4823
-29.4619
-29.436
-29.4035
-29.3624
-29.3118
-29.2508
-29.1876
-29.1139
-29.1572
-30.9601
-30.9601
-30.9595
-30.9592
-30.9589
-30.9572
-30.9549
-30.9524
-30.9479
-30.9429
-30.9359
-30.9268
-30.9146
-30.8991
-30.878
-30.8511
-30.8154
-30.7672
-30.7031
-30.6179
-30.5051
-30.3224
-30.0874
-32.3967
-32.3976
-32.3969
-32.3968
-32.3961
-32.395
-32.393
-32.3905
-32.3874
-32.3825
-32.3763
-32.3683
-32.3583
-32.3451
-32.3285
-32.3069
-32.2798
-32.2447
-32.2022
-32.1523
-32.1021
-32.0294
-32.0849
-33.7853
-33.7853
-33.7847
-33.785
-33.7839
-33.782
-33.7808
-33.7778
-33.7736
-33.7682
-33.761
-33.7519
-33.7395
-33.7232
-33.7015
-33.6732
-33.6353
-33.5855
-33.5216
-33.4395
-33.3384
-33.2074
-33.1782
-35.2449
-35.2452
-35.2454
-35.2445
-35.2433
-35.2425
-35.2399
-35.2369
-35.2324
-35.227
-35.2194
-35.2096
-35.1968
-35.18
-35.1581
-35.1303
-35.0935
-35.0447
-34.9811
-34.8955
-34.7834
-34.6081
-34.3486
-36.6722
-36.673
-36.6719
-36.6715
-36.6715
-36.6696
-36.6683
-36.6658
-36.6621
-36.6572
-36.6509
-36.6431
-36.633
-36.6202
-36.6037
-36.5833
-36.5574
-36.5257
-36.4896
-36.4498
-36.4203
-36.3888
-36.5045
-38.0234
-38.022
-38.0235
-38.0223
-38.021
-38.0206
-38.0178
-38.0152
-38.0113
-38.0062
-37.9997
-37.9911
-37.9798
-37.9654
-37.9468
-37.9231
-37.893
-37.8544
-37.8065
-37.7457
-37.6736
-37.562
-37.4956
-39.3451
-39.3458
-39.3448
-39.3448
-39.3442
-39.3431
-39.3414
-39.3388
-39.3352
-39.3307
-39.3242
-39.316
-39.3049
-39.2915
-39.2739
-39.2516
-39.2235
-39.1889
-39.1486
-39.102
-39.0612
-39.0236
-39.0696
-40.5765
-40.577
-40.5762
-40.5763
-40.5758
-40.5743
-40.5727
-40.5697
-40.566
-40.5606
-40.5535
-40.5439
-40.5308
-40.5142
-40.4914
-40.4617
-40.4226
-40.3717
-40.305
-40.2157
-40.1047
-39.9239
-39.7045
-41.86
-41.8586
-41.8598
-41.8592
-41.8584
-41.8574
-41.8555
-41.853
-41.8492
-41.8444
-41.8375
-41.8283
-41.8158
-41.7993
-41.7766
-41.7473
-41.7085
-41.658
-41.5923
-41.5053
-41.4012
-41.2366
-41.1446
-43.2131
-43.2136
-43.2131
-43.2131
-43.2121
-43.2108
-43.2092
-43.2059
-43.2024
-43.1968
-43.1895
-43.1798
-43.1668
-43.1497
-43.1267
-43.0963
-43.0554
-43.0018
-42.9298
-42.8318
-42.7086
-42.5098
-42.3515
-44.6374
-44.6368
-44.6372
-44.637
-44.6358
-44.6347
-44.6328
-44.6303
-44.6266
-44.622
-44.6159
-44.6077
-44.5973
-44.5836
-44.5665
-44.5449
-44.5177
-44.4843
-44.4417
-44.3881
-44.3309
-44.2148
-44.1537
-45.9191
-45.9194
-45.9192
-45.9189
-45.918
-45.9164
-45.9147
-45.9111
-45.9076
-45.902
-45.8947
-45.885
-45.8724
-45.8562
-45.8352
-45.8083
-45.775
-45.7351
-45.6894
-45.6414
-45.6073
-45.5681
-45.8065
-47.1779
-47.1781
-47.1784
-47.1774
-47.1765
-47.1759
-47.1733
-47.1708
-47.1664
-47.1602
-47.1519
-47.1403
-47.1246
-47.1031
-47.0744
-47.0356
-46.9832
-46.9113
-46.8097
-46.6669
-46.4599
-46.1443
-45.7284
-48.7354
-48.7359
-48.7349
-48.7348
-48.7345
-48.7327
-48.731
-48.7283
-48.7244
-48.7194
-48.7134
-48.7048
-48.6948
-48.6819
-48.6661
-48.6463
-48.6224
-48.5931
-48.556
-48.5128
-48.4589
-48.4007
-48.3068
-49.9594
-49.9584
-49.9595
-49.9582
-49.9581
-49.957
-49.9556
-49.953
-49.9503
-49.9459
-49.9402
-49.9328
-49.9242
-49.9132
-49.901
-49.8876
-49.8751
-49.8652
-49.8671
-49.8986
-49.9618
-50.1867
-50.8263
-50.9269
-50.9274
-50.9266
-50.9268
-50.9258
-50.9244
-50.9218
-50.9184
-50.9127
-50.9054
-50.8956
-50.882
-50.8637
-50.8388
-50.8054
-50.7601
-50.6992
-50.6158
-50.5036
-50.3479
-50.1136
-49.8877
-49.2779
-52.3034
-52.3028
-52.3032
-52.3025
-52.3019
-52.2996
-52.2973
-52.2932
-52.2879
-52.2804
-52.2699
-52.2557
-52.237
-52.2115
-52.1765
-52.1283
-52.0619
-51.9664
-51.8298
-51.6248
-51.3286
-50.8466
-49.6376
-53.906
-53.9071
-53.9058
-53.9062
-53.9042
-53.9033
-53.901
-53.8972
-53.8932
-53.8868
-53.8795
-53.8705
-53.8591
-53.8451
-53.8276
-53.8068
-53.783
-53.7559
-53.7258
-53.6969
-53.6818
-53.6653
-53.7427
-159.539
-159.538
-159.538
-159.538
-159.536
-159.534
-159.53
-159.524
-159.516
-159.506
-159.491
-159.472
-159.446
-159.412
-159.366
-159.307
-159.227
-159.122
-158.978
-158.78
-158.532
-158.259
-157.81
-160.73
-160.732
-160.73
-160.73
-160.728
-160.725
-160.721
-160.715
-160.707
-160.696
-160.681
-160.661
-160.634
-160.599
-160.552
-160.49
-160.406
-160.292
-160.131
-159.903
-159.585
-159.12
-158.302
-162.134
-162.133
-162.133
-162.132
-162.13
-162.127
-162.123
-162.117
-162.11
-162.099
-162.086
-162.068
-162.046
-162.018
-161.982
-161.937
-161.88
-161.806
-161.713
-161.6
-161.464
-161.323
-161.34
-163.418
-163.418
-163.417
-163.416
-163.415
-163.412
-163.408
-163.402
-163.394
-163.384
-163.37
-163.354
-163.332
-163.304
-163.268
-163.222
-163.163
-163.088
-162.993
-162.874
-162.719
-162.549
-162.396
-164.799
-164.799
-164.799
-164.798
-164.796
-164.793
-164.788
-164.782
-164.774
-164.763
-164.749
-164.732
-164.709
-164.682
-164.647
-164.603
-164.549
-164.485
-164.409
-164.317
-164.207
-164.097
-163.953
-165.975
-165.975
-165.975
-165.974
-165.972
-165.969
-165.964
-165.958
-165.949
-165.938
-165.924
-165.906
-165.882
-165.853
-165.816
-165.771
-165.715
-165.647
-165.561
-165.449
-165.323
-165.188
-165.117
-167.145
-167.144
-167.144
-167.143
-167.141
-167.138
-167.134
-167.127
-167.119
-167.108
-167.093
-167.075
-167.051
-167.02
-166.982
-166.933
-166.87
-166.788
-166.676
-166.523
-166.337
-166.11
-165.889
-168.315
-168.315
-168.315
-168.314
-168.312
-168.309
-168.304
-168.298
-168.289
-168.279
-168.264
-168.246
-168.223
-168.194
-168.158
-168.114
-168.058
-167.984
-167.89
-167.774
-167.64
-167.492
-167.422
-169.291
-169.291
-169.29
-169.29
-169.288
-169.285
-169.281
-169.275
-169.267
-169.257
-169.243
-169.225
-169.203
-169.174
-169.137
-169.089
-169.027
-168.95
-168.855
-168.744
-168.607
-168.465
-168.44
-170.318
-170.319
-170.318
-170.317
-170.315
-170.312
-170.307
-170.301
-170.291
-170.28
-170.264
-170.243
-170.216
-170.181
-170.136
-170.077
-170.001
-169.903
-169.779
-169.613
-169.384
-169.09
-168.726
-61.5506
-61.5499
-61.5506
-61.5498
-61.5486
-61.5472
-61.5447
-61.5408
-61.5363
-61.5299
-61.5215
-61.5113
-61.4976
-61.4803
-61.4582
-61.4301
-61.3938
-61.3471
-61.2849
-61.1996
-61.0813
-60.9015
-60.5802
-62.7383
-62.7391
-62.738
-62.7378
-62.7369
-62.7355
-62.7332
-62.7303
-62.7262
-62.721
-62.7143
-62.7059
-62.6956
-62.6834
-62.6683
-62.6506
-62.6302
-62.6086
-62.5889
-62.5772
-62.5981
-62.6685
-62.976
-63.7377
-63.7375
-63.7372
-63.7364
-63.7361
-63.734
-63.7319
-63.7285
-63.7233
-63.7171
-63.7087
-63.698
-63.6836
-63.6649
-63.6411
-63.6102
-63.5698
-63.5176
-63.4481
-63.3571
-63.2422
-63.0731
-62.9135
-64.8752
-64.8747
-64.8748
-64.8746
-64.873
-64.8719
-64.8695
-64.8658
-64.8613
-64.8551
-64.8468
-64.8358
-64.8215
-64.8033
-64.7796
-64.7486
-64.7086
-64.6569
-64.5897
-64.5014
-64.3872
-64.2117
-63.9842
-65.9687
-65.9691
-65.9687
-65.968
-65.9675
-65.9657
-65.963
-65.9595
-65.9546
-65.9478
-65.939
-65.9275
-65.9127
-65.8932
-65.8678
-65.8343
-65.7911
-65.7348
-65.6622
-65.5684
-65.4533
-65.2946
-65.2343
-67.1626
-67.1616
-67.1623
-67.1617
-67.1601
-67.1585
-67.1558
-67.1521
-67.1465
-67.1393
-67.1298
-67.1171
-67.1007
-67.0798
-67.052
-67.0155
-66.9674
-66.9037
-66.8184
-66.7023
-66.5453
-66.3152
-66.04
-68.4237
-68.4243
-68.4235
-68.4231
-68.4221
-68.4202
-68.4179
-68.4137
-68.409
-68.4026
-68.3947
-68.3843
-68.3711
-68.3548
-68.3337
-68.307
-68.2734
-68.2308
-68.1777
-68.1119
-68.0397
-67.9431
-67.8835
-69.6098
-69.6101
-69.6095
-69.6088
-69.6081
-69.6061
-69.6034
-69.6002
-69.5953
-69.5891
-69.5814
-69.5717
-69.5595
-69.5445
-69.5256
-69.5024
-69.4742
-69.44
-69.3991
-69.3537
-69.3125
-69.2604
-69.2827
-70.6818
-70.6811
-70.6813
-70.6804
-70.6795
-70.6775
-70.675
-70.6716
-70.6668
-70.6604
-70.6521
-70.6417
-70.6282
-70.6111
-70.5892
-70.5614
-70.527
-70.4844
-70.4326
-70.3725
-70.3064
-70.2188
-70.2175
-71.6929
-71.6926
-71.6922
-71.6924
-71.6913
-71.6897
-71.6874
-71.6842
-71.6796
-71.6731
-71.6645
-71.6533
-71.638
-71.6183
-71.5923
-71.5577
-71.5119
-71.4509
-71.3695
-71.2637
-71.1199
-70.9375
-70.7894
-72.8736
-72.8734
-72.8734
-72.8731
-72.8719
-72.8703
-72.868
-72.8649
-72.8608
-72.8548
-72.8477
-72.8376
-72.8247
-72.8078
-72.786
-72.7572
-72.7192
-72.6683
-72.5992
-72.5049
-72.3656
-72.1817
-71.8391
-74.0482
-74.0482
-74.0482
-74.0479
-74.0473
-74.0462
-74.0449
-74.0427
-74.0398
-74.036
-74.0306
-74.0238
-74.0153
-74.0049
-73.9926
-73.9777
-73.9615
-73.9439
-73.9292
-73.9233
-73.9439
-74.0376
-74.2589
-74.9889
-74.9893
-74.9885
-74.9886
-74.9877
-74.9868
-74.9846
-74.9823
-74.978
-74.9728
-74.9653
-74.9551
-74.9418
-74.9242
-74.9012
-74.8708
-74.8314
-74.7809
-74.717
-74.6401
-74.5473
-74.4757
-74.4094
-76.0446
-76.0436
-76.0444
-76.0439
-76.0431
-76.0419
-76.0398
-76.036
-76.0312
-76.0239
-76.0139
-76.0005
-75.9825
-75.9577
-75.9242
-75.8778
-75.8149
-75.7281
-75.6074
-75.4383
-75.1995
-74.9019
-74.3413
-77.3876
-77.3882
-77.3878
-77.3869
-77.3862
-77.3838
-77.3809
-77.3764
-77.3704
-77.3616
-77.3507
-77.336
-77.317
-77.292
-77.2594
-77.2162
-77.1595
-77.0808
-76.9769
-76.8301
-76.6353
-76.3344
-75.6534
-78.7025
-78.7029
-78.7025
-78.7022
-78.7013
-78.7001
-78.6983
-78.6954
-78.6914
-78.6863
-78.6794
-78.6706
-78.66
-78.6463
-78.6285
-78.6066
-78.5792
-78.5478
-78.5116
-78.4805
-78.4593
-78.4664
-78.6085
-79.9006
-79.9001
-79.8999
-79.8999
-79.8992
-79.8978
-79.8957
-79.8928
-79.889
-79.8836
-79.8769
-79.8681
-79.8569
-79.8427
-79.825
-79.8022
-79.7731
-79.7376
-79.6943
-79.6429
-79.5827
-79.4947
-79.5025
-81.0368
-81.0372
-81.0371
-81.037
-81.0362
-81.0354
-81.0342
-81.0321
-81.0295
-81.0255
-81.0205
-81.0139
-81.0054
-80.9945
-80.9808
-80.9627
-80.9413
-80.9158
-80.889
-80.8598
-80.8404
-80.8193
-80.8997
-82.0105
-82.0107
-82.0109
-82.0104
-82.0103
-82.0096
-82.0087
-82.007
-82.0047
-82.0013
-81.9971
-81.9911
-81.9828
-81.9717
-81.9566
-81.936
-81.9088
-81.8749
-81.8325
-81.7803
-81.7207
-81.6672
-81.695
-83.085
-83.0845
-83.0848
-83.0846
-83.0844
-83.0836
-83.0826
-83.0811
-83.0788
-83.0755
-83.0712
-83.0649
-83.0564
-83.0446
-83.0285
-83.0069
-82.9777
-82.9384
-82.8846
-82.8099
-82.71
-82.5491
-82.2104
-84.174
-84.1736
-84.1738
-84.1736
-84.1727
-84.1718
-84.1704
-84.1685
-84.1652
-84.1617
-84.1564
-84.1503
-84.1414
-84.1304
-84.1157
-84.0973
-84.0746
-84.0477
-84.0176
-83.9884
-83.9746
-83.9529
-84.0564
-85.1419
-85.1424
-85.1417
-85.1413
-85.1402
-85.139
-85.1372
-85.1347
-85.1309
-85.1265
-85.12
-85.1116
-85.0997
-85.0842
-85.0633
-85.0356
-84.9981
-84.9491
-84.8849
-84.8082
-84.7046
-84.568
-84.5377
-86.1697
-86.1697
-86.1698
-86.1691
-86.1682
-86.1672
-86.1655
-86.163
-86.1592
-86.1544
-86.1476
-86.1384
-86.1254
-86.1086
-86.0858
-86.0561
-86.016
-85.964
-85.8975
-85.8132
-85.6818
-85.535
-85.3571
-87.1431
-87.1428
-87.1429
-87.1421
-87.1414
-87.1397
-87.1378
-87.1349
-87.1299
-87.1233
-87.1142
-87.1017
-87.0845
-87.0618
-87.0312
-86.9906
-86.9371
-86.8689
-86.7824
-86.6704
-86.5121
-86.4365
-86.31
-88.2742
-88.2748
-88.2743
-88.2742
-88.2724
-88.2713
-88.2678
-88.263
-88.2563
-88.2469
-88.2336
-88.2158
-88.1913
-88.1578
-88.1123
-88.0505
-87.9664
-87.8498
-87.686
-87.4509
-87.143
-86.8423
-85.9212
-89.9037
-89.9041
-89.9035
-89.9029
-89.9022
-89.8996
-89.8964
-89.8921
-89.886
-89.8781
-89.8671
-89.8527
-89.8338
-89.8089
-89.7762
-89.7343
-89.6769
-89.6001
-89.4875
-89.3341
-89.1456
-88.7973
-87.5894
-91.4003
-91.4001
-91.3995
-91.3996
-91.3983
-91.397
-91.3947
-91.3912
-91.3871
-91.3817
-91.3751
-91.3669
-91.3571
-91.3483
-91.3391
-91.3351
-91.3333
-91.3464
-91.3747
-91.4649
-91.6358
-92.1279
-93.4171
-92.5611
-92.5611
-92.561
-92.5601
-92.5592
-92.5573
-92.5546
-92.5501
-92.5444
-92.5363
-92.525
-92.5098
-92.4893
-92.4613
-92.4228
-92.3662
-92.2914
-92.1758
-92.0258
-91.7677
-91.4126
-90.8491
-89.817
-94.2269
-94.2272
-94.2266
-94.2266
-94.2255
-94.2236
-94.2211
-94.2169
-94.2116
-94.2044
-94.195
-94.1827
-94.1676
-94.1474
-94.1227
-94.0911
-94.0543
-94.0092
-93.9605
-93.8992
-93.8299
-93.7314
-93.5357
-95.5012
-95.5005
-95.5011
-95.4999
-95.4987
-95.4974
-95.4939
-95.4899
-95.4839
-95.4755
-95.4651
-95.4511
-95.4335
-95.4107
-95.3824
-95.3466
-95.3047
-95.2525
-95.1901
-95.1171
-95.0538
-95.037
-95.2949
-96.8965
-96.8964
-96.8963
-96.8957
-96.8949
-96.892
-96.8894
-96.8841
-96.8774
-96.8685
-96.8571
-96.8412
-96.8209
-96.7945
-96.7608
-96.7162
-96.6579
-96.577
-96.4629
-96.3011
-96.0828
-95.7568
-95.098
-98.374
-98.374
-98.3735
-98.3732
-98.3721
-98.3704
-98.3671
-98.3635
-98.3584
-98.3517
-98.3435
-98.3327
-98.3192
-98.3029
-98.2838
-98.2607
-98.2336
-98.2014
-98.1667
-98.1352
-98.1248
-98.1342
-98.2002
-99.5917
-99.5912
-99.5911
-99.5909
-99.5897
-99.5876
-99.5855
-99.5814
-99.577
-99.5707
-99.5631
-99.5532
-99.5409
-99.5257
-99.5076
-99.4847
-99.4574
-99.4264
-99.3945
-99.3638
-99.3448
-99.3034
-99.4047
-100.776
-100.776
-100.776
-100.775
-100.774
-100.773
-100.771
-100.768
-100.764
-100.758
-100.752
-100.743
-100.732
-100.719
-100.701
-100.681
-100.657
-100.631
-100.602
-100.575
-100.56
-100.53
-100.652
-101.832
-101.832
-101.832
-101.832
-101.83
-101.829
-101.827
-101.823
-101.818
-101.811
-101.802
-101.791
-101.777
-101.758
-101.735
-101.706
-101.67
-101.626
-101.57
-101.499
-101.422
-101.296
-101.276
-102.801
-102.801
-102.801
-102.801
-102.8
-102.799
-102.796
-102.792
-102.788
-102.781
-102.772
-102.759
-102.743
-102.721
-102.693
-102.657
-102.609
-102.546
-102.462
-102.352
-102.219
-102.064
-102.09
-103.871
-103.87
-103.87
-103.87
-103.869
-103.868
-103.865
-103.863
-103.858
-103.852
-103.844
-103.833
-103.818
-103.798
-103.771
-103.734
-103.682
-103.611
-103.512
-103.372
-103.173
-102.855
-102.293
-105.109
-105.109
-105.11
-105.109
-105.108
-105.107
-105.105
-105.102
-105.098
-105.093
-105.086
-105.076
-105.064
-105.049
-105.029
-105.005
-104.976
-104.942
-104.907
-104.875
-104.861
-104.863
-105.07
-106.141
-106.141
-106.14
-106.141
-106.139
-106.138
-106.137
-106.134
-106.13
-106.125
-106.118
-106.109
-106.096
-106.08
-106.059
-106.03
-105.994
-105.948
-105.887
-105.806
-105.705
-105.546
-105.381
-107.27
-107.27
-107.27
-107.269
-107.269
-107.268
-107.266
-107.264
-107.261
-107.256
-107.249
-107.241
-107.229
-107.214
-107.195
-107.171
-107.142
-107.107
-107.064
-107.016
-106.973
-106.92
-106.978
-108.228
-108.228
-108.228
-108.228
-108.227
-108.226
-108.224
-108.221
-108.217
-108.211
-108.203
-108.192
-108.177
-108.157
-108.131
-108.097
-108.051
-107.992
-107.914
-107.814
-107.687
-107.51
-107.425
-109.339
-109.34
-109.339
-109.339
-109.339
-109.337
-109.336
-109.333
-109.329
-109.324
-109.316
-109.306
-109.292
-109.273
-109.248
-109.216
-109.171
-109.114
-109.036
-108.932
-108.784
-108.568
-108.299
-110.514
-110.514
-110.514
-110.514