/*--------------------------------*- C++ -*----------------------------------*\
  =========                 |
  \\      /  F ield         | OpenFOAM: The Open Source CFD Toolbox
   \\    /   O peration     | Website:  https://openfoam.org
    \\  /    A nd           | Version:  10
     \\/     M anipulation  |
\*---------------------------------------------------------------------------*/
FoamFile
{
    format      ascii;
    class       surfaceScalarField;
    location    "400";
    object      phi;
}
// * * * * * * * * * * * * * * * * * * * * * * * * * * * * * * * * * * * * * //

dimensions      [0 3 -1 0 0 0 0];

internalField   nonuniform List<scalar> 
154254
(
1.1112e-07
9.96323e-06
-1.00144e-05
9.22081e-07
3.8592e-05
-3.93031e-05
2.07218e-06
8.49083e-05
-8.59937e-05
3.37808e-06
0.000151495
-0.000152712
6.67062e-06
0.000232996
-0.000236258
9.15961e-06
0.000330036
-0.000332466
1.34239e-05
0.000444519
-0.000448774
1.88079e-05
0.000584195
-0.000589539
2.5475e-05
0.000753635
-0.000760302
3.35068e-05
0.000964408
-0.000972412
4.32553e-05
0.00122413
-0.00123388
5.48234e-05
0.00154441
-0.00155596
6.86387e-05
0.00193991
-0.00195373
8.51127e-05
0.00243305
-0.00244951
0.000102816
0.00304192
-0.00305963
0.000127096
0.0037932
-0.00381747
0.000153802
0.004723
-0.00474971
0.000183489
0.00587157
-0.00590124
0.000221479
0.00727721
-0.00731521
0.000261656
0.00899593
-0.00903612
0.000310932
0.0110942
-0.0111434
0.000365079
0.0136933
-0.0137476
0.0170576
-0.0171073
0.000414764
-2.05039e-07
-2.11344e-05
2.10362e-05
-3.37245e-07
-8.10617e-05
8.08959e-05
-4.2049e-07
-0.000170433
0.000170221
-2.61812e-07
-0.000280458
0.000280159
-3.56214e-07
-0.000400673
0.00040062
1.30685e-06
-0.000541283
0.000539585
2.08099e-06
-0.0007056
0.000704734
3.712e-06
-0.000904609
0.000902997
3.39934e-06
-0.00114682
0.00114708
5.52641e-06
-0.00144384
0.00144177
8.2041e-06
-0.00181018
0.00180746
1.18412e-05
-0.00225688
0.00225334
1.63346e-05
-0.00280718
0.00280266
2.37381e-05
-0.00348461
0.00347733
2.88866e-05
-0.00431273
0.00430753
3.82461e-05
-0.00532911
0.00531985
4.67756e-05
-0.00656649
0.00655785
5.71275e-05
-0.00807134
0.00806108
6.84438e-05
-0.00988627
0.00987481
8.33528e-05
-0.0120868
0.0120719
9.95536e-05
-0.0147739
0.0147576
0.000126783
-0.0181125
0.0180851
-0.0223436
0.0223056
0.000164585
4.15034e-07
-2.11192e-05
7.6516e-07
-8.10455e-05
1.25026e-06
-0.000170483
1.58676e-06
-0.000280622
2.50304e-06
-0.000401344
2.78822e-06
-0.000541499
3.81133e-06
-0.000706468
5.03369e-06
-0.000905795
6.73842e-06
-0.00114841
1.02933e-05
-0.00144737
1.16549e-05
-0.00181149
1.52373e-05
-0.00226046
2.13751e-05
-0.00281331
2.48057e-05
-0.00348806
3.15659e-05
-0.00431952
3.94035e-05
-0.00533703
4.9967e-05
-0.00657713
5.69806e-05
-0.00807855
6.92218e-05
-0.0098986
8.0839e-05
-0.0120984
9.87926e-05
-0.0147921
0.000118836
-0.0181326
-0.0223747
0.000149904
-6.90545e-07
-8.35624e-06
9.11036e-06
-3.40095e-06
-3.24143e-05
3.51668e-05
-8.36133e-06
-7.16497e-05
7.67014e-05
-1.47932e-05
-0.000129419
0.00013587
-2.19489e-05
-0.000202175
0.000209404
-3.00809e-05
-0.000286935
0.000295064
-3.60556e-05
-0.000390605
0.000396638
-4.16931e-05
-0.000514625
0.000520257
-4.65761e-05
-0.00066674
0.000671678
-4.66111e-05
-0.00085824
0.000858275
-4.45015e-05
-0.00109263
0.00109058
-3.91808e-05
-0.00138502
0.0013797
-2.53678e-05
-0.0017506
0.00173684
-5.00324e-06
-0.00220451
0.00218415
2.4037e-05
-0.00276766
0.00273869
7.11882e-05
-0.00347116
0.00342403
0.000133917
-0.00434186
0.0042792
0.000216619
-0.00541964
0.00533698
0.000316892
-0.00674709
0.00664688
0.000442122
-0.00837457
0.00824943
0.000586215
-0.0103598
0.0102158
0.000754769
-0.0128192
0.0126508
-0.0160117
0.0158191
0.000947415
1.4254e-05
-7.40338e-06
-7.02493e-06
3.59579e-05
-1.11464e-05
-1.06054e-05
7.59451e-05
-2.06357e-05
-1.96894e-05
0.000148202
-3.71998e-05
-3.56062e-05
0.00024646
-5.02395e-05
-4.8426e-05
0.000391557
-7.42657e-05
-7.20347e-05
0.000590951
-0.000100963
-9.8588e-05
0.000838372
-0.000125414
-0.000123091
0.00116707
-0.000165444
-0.00016295
0.00154082
-0.000188419
-0.000185948
0.00198528
-0.000223324
-0.000220569
0.00252619
-0.000272185
-0.000268863
0.00315258
-0.0003148
-0.000310847
0.00385164
-0.00035189
-0.000346978
0.00467197
-0.000413233
-0.000406394
0.00558582
-0.000461713
-0.000451711
0.0065891
-0.000508773
-0.000493856
0.00767004
-0.000551067
-0.000529239
0.00883966
-0.000599991
-0.000569079
0.0101044
-0.000653146
-0.000610692
0.0114667
-0.000710093
-0.000651797
0.0129424
-0.000774985
-0.000700041
-0.000851936
-0.000743202
0.0145382
1.99305e-07
8.24923e-06
-8.44094e-06
8.98223e-07
3.22545e-05
-3.29677e-05
2.46868e-06
7.16701e-05
-7.3217e-05
5.13707e-06
0.00013005
-0.000132731
9.67354e-06
0.000203148
-0.00020765
1.48261e-05
0.000290828
-0.000295985
2.15897e-05
0.000394678
-0.000401404
3.00013e-05
0.000521743
-0.000530149
3.94067e-05
0.000677619
-0.000686982
5.34904e-05
0.000869856
-0.000883922
6.91666e-05
0.00110911
-0.00112474
8.70664e-05
0.00140665
-0.00142452
0.0001114
0.00177443
-0.00179872
0.00013789
0.0022348
-0.00226126
0.000171654
0.00280397
-0.00283772
0.000210831
0.00351432
-0.00355345
0.000261417
0.00439154
-0.00444214
0.000318719
0.00548261
-0.00553985
0.000388361
0.00682107
-0.00689074
0.00047098
0.00846158
-0.00854412
0.000569136
0.0104647
-0.0105629
0.000686659
0.0129458
-0.0130633
0.0161566
-0.0162926
0.000822735
-1.12461e-07
-3.01576e-07
-2.77315e-07
3.16378e-07
1.30633e-06
5.16564e-06
9.2661e-06
1.63576e-05
2.72748e-05
3.8874e-05
5.53909e-05
7.70156e-05
0.000100896
0.000131199
0.00016754
0.000210723
0.000260418
0.000323432
0.000397416
0.000484467
0.000589334
0.000715935
0.000860847
2.59187e-07
9.51752e-06
-9.69857e-06
1.04526e-06
3.69126e-05
-3.7572e-05
2.48562e-06
8.14178e-05
-8.27694e-05
4.73488e-06
0.000145905
-0.000148038
6.98572e-06
0.000225961
-0.000228165
1.16988e-05
0.000318914
-0.000323545
1.64761e-05
0.000431396
-0.00043615
2.25428e-05
0.000567587
-0.000573592
2.8721e-05
0.000734257
-0.000740421
3.77427e-05
0.00093914
-0.000948112
5.0174e-05
0.00119183
-0.00120425
6.34505e-05
0.00150708
-0.00152031
7.80574e-05
0.00189796
-0.00191255
9.71709e-05
0.00237977
-0.00239884
0.000121332
0.00297723
-0.00300135
0.000146543
0.00372016
-0.00374533
0.000178012
0.00463706
-0.00466846
0.000214833
0.00576903
-0.00580579
0.000257936
0.00715878
-0.00720182
0.000308039
0.00885558
-0.00890561
0.000365267
0.0109303
-0.0109876
0.000432435
0.0134991
-0.0135662
0.0168244
-0.0169046
0.000512676
2.85742e-07
9.34459e-06
1.09277e-06
3.62711e-05
2.59873e-06
8.00508e-05
4.88147e-06
0.000143774
8.0229e-06
0.000222904
1.20531e-05
0.000314987
1.61199e-05
0.000427377
2.35002e-05
0.000560284
3.13577e-05
0.000726427
4.10041e-05
0.000929552
5.1305e-05
0.00118155
6.54436e-05
0.00149298
8.38091e-05
0.00187959
0.000104072
0.00235954
0.000126682
0.00295461
0.000155062
0.0036918
0.000188527
0.00460361
0.000227856
0.00572971
0.000273701
0.00711298
0.00032567
0.00880353
0.000389072
0.010867
0.000464936
0.0134232
0.0167317
0.000557563
2.60568e-07
9.1596e-06
1.04413e-06
3.55764e-05
2.5841e-06
7.86142e-05
5.03704e-06
0.000141405
8.34247e-06
0.000219677
1.26049e-05
0.000310788
1.80878e-05
0.000421951
2.48238e-05
0.000553607
3.32221e-05
0.000718077
4.34129e-05
0.00091942
5.58809e-05
0.00116912
7.09504e-05
0.00147797
8.90025e-05
0.00186156
0.000109144
0.00233945
0.000136328
0.00292744
0.000166527
0.00366166
0.000200404
0.00456974
0.000241986
0.0056882
0.000288594
0.00706637
0.000344222
0.00874799
0.000408155
0.010803
0.000481368
0.0133501
0.0166507
0.000562405
2.75885e-07
8.93275e-06
1.12769e-06
3.47697e-05
2.8495e-06
7.69657e-05
5.57497e-06
0.00013872
9.25034e-06
0.000216065
1.40526e-05
0.000306015
2.10248e-05
0.000415032
2.74942e-05
0.000547168
3.66454e-05
0.000708978
4.77938e-05
0.000908308
6.14284e-05
0.00115554
7.78583e-05
0.00146158
9.60849e-05
0.00184338
0.000121175
0.00231441
0.000147624
0.00290103
0.000180803
0.00362853
0.000221409
0.00452915
0.000265512
0.00564414
0.000319136
0.00701276
0.000381632
0.00868549
0.000455137
0.0107296
0.000542074
0.0132632
0.0165416
0.000651218
2.49204e-07
8.69703e-06
1.11909e-06
3.38952e-05
2.91964e-06
7.51937e-05
5.73409e-06
0.000135902
1.04822e-05
0.000211353
1.47608e-05
0.00030174
2.13151e-05
0.000408514
2.93563e-05
0.000539139
3.92797e-05
0.000699095
5.15274e-05
0.000896085
6.61703e-05
0.00114093
8.38131e-05
0.00144398
0.000105204
0.00182203
0.000130618
0.00228904
0.00016083
0.00287086
0.000196737
0.00359268
0.000237437
0.00448848
0.000287224
0.00559441
0.000345141
0.00695487
0.000412873
0.00861783
0.000489642
0.0106528
0.000581977
0.0131709
0.0164339
0.000689755
2.74605e-07
1.20345e-06
3.2162e-06
6.38629e-06
1.01303e-05
1.58858e-05
2.30366e-05
3.2034e-05
4.41954e-05
5.63742e-05
7.26206e-05
9.21077e-05
0.000115464
0.000143302
0.000176501
0.0002158
0.000262207
0.000316809
0.000380983
0.000454599
0.000544411
0.000651975
0.00079329
2.25338e-07
-9.86908e-06
9.02213e-07
-3.81667e-05
2.17478e-06
-8.39785e-05
3.60549e-06
-0.000149397
6.91858e-06
-0.000231445
1.04312e-05
-0.000327012
1.47912e-05
-0.000440494
1.92803e-05
-0.000578051
2.72308e-05
-0.000748367
3.57166e-05
-0.000956582
4.46616e-05
-0.00121319
5.7175e-05
-0.00153282
7.2267e-05
-0.00192764
9.01043e-05
-0.00241668
0.000111273
-0.0030225
0.000136334
-0.0037704
0.000165862
-0.00469795
0.000198912
-0.00583884
0.000239736
-0.00724262
0.000287877
-0.0089537
0.000345144
-0.0110448
0.000414556
-0.0136356
-0.0169911
0.000501068
-1.19445e-05
2.0996e-05
-3.05264e-05
5.33769e-05
-4.19009e-05
8.81019e-05
-5.40654e-05
0.000147795
-7.83255e-05
0.000233806
-9.99917e-05
0.000316712
-0.00011826
0.000415062
-0.000133037
0.000535091
-0.000143922
0.000682699
-0.000150535
0.000864916
-0.000166478
0.00110663
-0.000172359
0.00138557
-0.000166666
0.00173127
-0.000158085
0.00217558
-0.000138788
0.00271951
-8.28891e-05
0.00336819
6.75682e-06
0.00418965
0.000112653
0.00523118
0.000272305
0.0064873
0.00044696
0.00807488
0.000656457
0.0100063
0.000876171
0.0124313
0.0155493
0.00114607
1.49385e-07
6.56278e-07
1.65096e-06
3.8203e-06
5.40494e-06
8.4742e-06
1.2515e-05
1.86886e-05
2.39614e-05
3.18026e-05
4.27398e-05
5.43302e-05
6.65871e-05
8.29406e-05
0.000102333
0.000125118
0.000150129
0.000182865
0.000217423
0.000259719
0.000309112
0.000366829
0.000433275
1.00021e-07
1.10637e-05
-1.11281e-05
3.90751e-07
4.28783e-05
-4.31243e-05
9.53726e-07
9.38247e-05
-9.43432e-05
2.53359e-06
0.000165127
-0.000166668
2.91095e-06
0.000253382
-0.000253729
4.28166e-06
0.000354618
-0.000355961
6.14988e-06
0.00047665
-0.000478499
8.37962e-06
0.000622826
-0.000625033
1.12058e-05
0.000803535
-0.000806345
1.46558e-05
0.00102235
-0.00102578
1.87314e-05
0.001294
-0.00129806
2.23506e-05
0.00162983
-0.00163342
2.98634e-05
0.00204174
-0.00204924
3.61512e-05
0.00255272
-0.00255897
4.57874e-05
0.00318304
-0.00319262
5.5914e-05
0.0039618
-0.00397191
6.80624e-05
0.0049231
-0.00493517
8.21529e-05
0.00610714
-0.00612126
9.81345e-05
0.00755992
-0.00757582
0.000119555
0.00932695
-0.00934853
0.000147491
0.0114924
-0.0115202
0.000181531
0.0141739
-0.014208
0.0176489
-0.0177214
0.000253969
3.24437e-07
-1.02827e-05
8.34775e-07
-3.97264e-05
2.20603e-06
-8.73013e-05
4.25727e-06
-0.000154688
6.99763e-06
-0.000238965
1.14487e-05
-0.000336869
1.59337e-05
-0.000453243
2.02415e-05
-0.000593813
2.7955e-05
-0.000768008
3.47866e-05
-0.000979219
4.41299e-05
-0.00124322
5.56196e-05
-0.00156743
6.91334e-05
-0.00196725
8.5217e-05
-0.00246558
0.000104256
-0.00307867
0.000125368
-0.00383856
0.000152341
-0.00477668
0.000186214
-0.0059351
0.0002231
-0.0073521
0.000269612
-0.00908263
0.000325129
-0.011199
0.00040248
-0.0138249
-0.0172142
0.000509297
1.90995e-07
-1.04353e-05
8.04382e-07
-4.02792e-05
1.8747e-06
-8.83298e-05
3.65868e-06
-0.000156418
5.99775e-06
-0.000241283
9.1258e-06
-0.00033996
1.29248e-05
-0.000457034
1.76001e-05
-0.000598461
2.21545e-05
-0.00077256
3.02492e-05
-0.000987291
3.8527e-05
-0.0012515
4.70147e-05
-0.0015759
6.01969e-05
-0.00198043
7.41413e-05
-0.0024795
9.05982e-05
-0.00309512
0.000110164
-0.00385811
0.000133201
-0.00479972
0.000158815
-0.00596069
0.000189104
-0.0073824
0.000227987
-0.00912148
0.000272486
-0.0112435
0.000327566
-0.01388
-0.0172885
0.000401898
1.784e-07
-1.05679e-05
7.18251e-07
-4.07539e-05
1.7556e-06
-8.93139e-05
3.38616e-06
-0.000157994
5.58481e-06
-0.000243452
8.3968e-06
-0.000342737
1.084e-05
-0.000459462
1.63874e-05
-0.000603985
2.14687e-05
-0.000777633
2.78214e-05
-0.000993627
3.40861e-05
-0.00125776
4.44579e-05
-0.00158626
5.52703e-05
-0.00199125
6.65847e-05
-0.00249081
8.18586e-05
-0.0031104
9.97406e-05
-0.00387599
0.000120909
-0.0048209
0.000145614
-0.00598539
0.000174794
-0.00741159
0.000208564
-0.00915521
0.000248306
-0.0112832
0.000289733
-0.0139214
-0.0173357
0.000336904
1.3994e-07
-1.06931e-05
6.6081e-07
-4.1252e-05
1.71852e-06
-9.03555e-05
3.31181e-06
-0.000159567
5.41493e-06
-0.000245547
7.11053e-06
-0.000344419
1.14081e-05
-0.000463757
1.5259e-05
-0.000607826
2.02191e-05
-0.000782593
2.60202e-05
-0.000999421
3.30975e-05
-0.00126484
4.14969e-05
-0.00159465
5.01751e-05
-0.00199993
6.37675e-05
-0.0025044
7.65019e-05
-0.00312314
9.3613e-05
-0.0038931
0.000113761
-0.00484105
0.000137971
-0.00600961
0.000166773
-0.0074404
0.000201357
-0.00918979
0.000240375
-0.0113223
0.000292373
-0.0139734
-0.0173999
0.000356525
4.31409e-08
-1.07219e-05
6.66242e-07
-4.18564e-05
1.02733e-06
-9.06991e-05
2.86211e-06
-0.000161388
3.73475e-06
-0.00024641
6.6678e-06
-0.000347345
9.21959e-06
-0.000466303
1.13566e-05
-0.000609962
1.64039e-05
-0.000787638
2.00672e-05
-0.00100309
2.74293e-05
-0.0012722
3.32666e-05
-0.0016005
4.34188e-05
-0.00201008
5.22343e-05
-0.00251323
6.62338e-05
-0.00313715
7.91674e-05
-0.00390605
9.66706e-05
-0.00485857
0.000115441
-0.00602838
0.000141921
-0.00746689
0.000168575
-0.00921639
0.000202336
-0.011356
0.000242391
-0.0140134
-0.0174549
0.000297399
1.3911e-07
-1.0856e-05
1.69744e-07
-4.18803e-05
1.0712e-06
-9.15954e-05
1.91008e-06
-0.000162222
3.08595e-06
-0.000247584
4.7122e-06
-0.000348969
5.91713e-06
-0.000467508
9.81216e-06
-0.000613856
1.22052e-05
-0.000790033
1.78363e-05
-0.00100872
2.1922e-05
-0.00127629
2.84573e-05
-0.00160704
3.62873e-05
-0.0020179
4.55815e-05
-0.00252252
5.6609e-05
-0.00314817
6.97255e-05
-0.00391917
8.51303e-05
-0.00487396
0.000103567
-0.00604682
0.000121458
-0.00748476
0.00014476
-0.00923971
0.000174324
-0.0113855
0.000200946
-0.01404
-0.017481
0.000227096
8.8999e-08
-1.09326e-05
3.40902e-07
-4.21136e-05
4.70993e-07
-9.17126e-05
1.40382e-06
-0.00016314
2.8498e-06
-0.000249024
4.85264e-06
-0.000350964
8.34924e-06
-0.000471003
1.05417e-05
-0.000616044
1.45258e-05
-0.000794017
1.94888e-05
-0.00101368
2.53408e-05
-0.00128214
3.38731e-05
-0.00161557
4.07551e-05
-0.00202479
5.08983e-05
-0.00253267
6.27632e-05
-0.00316004
7.67989e-05
-0.0039332
9.21937e-05
-0.00488936
0.000113207
-0.00606782
0.000133911
-0.00750548
0.000161644
-0.00926742
0.000189204
-0.0114131
0.000226436
-0.0140774
-0.0175094
0.000254746
1.07385e-07
-1.10257e-05
5.19562e-07
-4.25081e-05
1.7871e-06
-9.29601e-05
2.5398e-06
-0.000163875
5.1235e-06
-0.000251592
6.59842e-06
-0.000352424
9.67745e-06
-0.000474068
1.33364e-05
-0.000619689
1.90662e-05
-0.000799733
2.30904e-05
-0.00101769
2.94057e-05
-0.00128844
3.70475e-05
-0.0016232
4.62283e-05
-0.00203396
5.68747e-05
-0.0025433
6.80713e-05
-0.00317122
8.50825e-05
-0.00395021
0.000102938
-0.00490721
0.000123067
-0.00608793
0.000152693
-0.00753509
0.000183554
-0.00929823
0.000226991
-0.0114565
0.000281079
-0.0141313
-0.0175932
0.000364918
7.63532e-08
4.97707e-07
1.41104e-06
2.70901e-06
4.53161e-06
6.75859e-06
9.36473e-06
1.25283e-05
1.63484e-05
2.10278e-05
2.66027e-05
3.32504e-05
4.10527e-05
5.04782e-05
6.23032e-05
7.39127e-05
8.98213e-05
0.000109065
0.00013393
0.000162716
0.000198626
0.000241329
0.000297114
1.73941e-07
-1.1971e-05
1.18718e-05
3.94679e-07
-4.60703e-05
4.59318e-05
3.29107e-07
-9.99796e-05
0.000100136
1.44684e-06
-0.00017635
0.000175282
2.14652e-06
-0.000267851
0.000267209
2.99336e-06
-0.000374839
0.000374007
3.04904e-06
-0.000501288
0.000501273
5.4878e-06
-0.000656922
0.00065448
5.98257e-06
-0.000842532
0.000842072
9.27738e-06
-0.0010741
0.0010708
1.15754e-05
-0.00135792
0.00135566
1.34999e-05
-0.00170492
0.00170298
1.73168e-05
-0.00213726
0.00213347
2.20085e-05
-0.00266845
0.00266375
2.78996e-05
-0.00332504
0.00331919
3.51844e-05
-0.00413619
0.00412889
4.5742e-05
-0.00513745
0.00512695
5.71195e-05
-0.00636618
0.00635477
7.31363e-05
-0.00787392
0.00785795
9.21094e-05
-0.00971647
0.00969745
0.000116078
-0.0119695
0.0119456
0.000151412
-0.0147567
0.0147216
-0.018328
0.0182734
0.000206161
-2.42593e-08
-1.20217e-05
1.5989e-08
-4.62253e-05
6.3276e-07
-0.000100664
2.81574e-07
-0.000176082
7.38304e-07
-0.000268325
1.33781e-06
-0.000375476
2.17276e-06
-0.000502114
3.20157e-06
-0.000657958
5.71218e-06
-0.000845024
7.10681e-06
-0.00107549
8.00407e-06
-0.00135881
1.15853e-05
-0.00170848
1.45984e-05
-0.00214026
1.83438e-05
-0.00267218
2.29838e-05
-0.00332969
2.87437e-05
-0.00414195
3.44427e-05
-0.00514318
4.45501e-05
-0.00637631
5.34679e-05
-0.00788287
6.68605e-05
-0.00972987
8.50819e-05
-0.0119878
0.00010653
-0.014778
-0.0183566
0.000135168
9.6698e-08
-1.11783e-05
3.70216e-07
-4.3336e-05
8.23205e-07
-9.47399e-05
1.50854e-06
-0.000167302
2.40886e-06
-0.000254597
3.65444e-06
-0.000357175
5.07208e-06
-0.000479898
7.05093e-06
-0.000626992
8.25966e-06
-0.000807544
1.23202e-05
-0.00102983
1.59337e-05
-0.00130167
2.05934e-05
-0.00163809
2.40546e-05
-0.0020527
3.13402e-05
-0.00256628
3.67911e-05
-0.0031981
4.50585e-05
-0.0039802
5.59571e-05
-0.00494612
6.69696e-05
-0.00613223
7.90577e-05
-0.00758795
9.26906e-05
-0.00936204
9.71781e-05
-0.0115247
9.60603e-05
-0.014207
-0.0176763
5.09355e-05
1.79151e-07
-1.13498e-05
5.02109e-07
-4.36502e-05
1.08086e-06
-9.53073e-05
1.2596e-06
-0.000167472
3.19754e-06
-0.000256526
4.62344e-06
-0.000358595
6.52712e-06
-0.000481795
8.79778e-06
-0.000629257
1.15871e-05
-0.000810329
1.48026e-05
-0.00103304
1.90726e-05
-0.00130593
2.4233e-05
-0.00164324
3.03236e-05
-0.00205879
3.61151e-05
-0.00257207
4.65608e-05
-0.00320854
5.68962e-05
-0.00399054
6.99526e-05
-0.00495918
8.60131e-05
-0.00614829
0.000105846
-0.00760781
0.000130953
-0.00938713
0.000165628
-0.0115594
0.000214059
-0.0142553
-0.0177402
0.000277939
6.73961e-08
-1.13978e-05
3.04164e-07
-4.38597e-05
8.01533e-07
-9.57824e-05
1.6701e-06
-0.000168317
1.6593e-06
-0.000256503
3.53432e-06
-0.000360454
5.85645e-06
-0.00048411
7.43574e-06
-0.000630826
1.01985e-05
-0.000813088
1.2045e-05
-0.00103488
1.68812e-05
-0.00131077
2.03388e-05
-0.0016467
2.69392e-05
-0.00206538
3.49996e-05
-0.00258013
4.11766e-05
-0.00321472
5.04481e-05
-0.00399981
6.1522e-05
-0.00497026
7.47983e-05
-0.00616156
9.06074e-05
-0.00762363
0.000109201
-0.00940567
0.000132228
-0.0115824
0.000159267
-0.0142824
-0.0177715
0.000190562
-4.11636e-08
-1.1343e-05
4.0284e-07
-4.42832e-05
5.23918e-07
-9.58878e-05
1.8922e-06
-0.000169667
2.90801e-06
-0.00025751
4.03482e-06
-0.000361567
4.91213e-06
-0.000484983
7.89478e-06
-0.000633798
9.54568e-06
-0.000814736
1.50055e-05
-0.00104033
1.64384e-05
-0.0013122
2.21684e-05
-0.00165242
2.65801e-05
-0.00206979
3.32587e-05
-0.0025868
4.25296e-05
-0.00322399
5.22067e-05
-0.00400948
6.38958e-05
-0.00498196
7.80867e-05
-0.00617572
9.48267e-05
-0.00764038
0.000115737
-0.00942652
0.000143001
-0.0116096
0.000175761
-0.0143151
-0.0178122
0.000216508
1.8076e-07
-1.1493e-05
2.37325e-07
-4.42908e-05
1.16715e-06
-9.67837e-05
7.88983e-07
-0.000169247
2.39906e-06
-0.000259105
3.91726e-06
-0.000363061
5.28551e-06
-0.000486346
7.54334e-06
-0.000636043
1.0949e-05
-0.000818141
1.26663e-05
-0.00104204
1.7651e-05
-0.00131718
2.2029e-05
-0.0016568
2.57975e-05
-0.00207356
3.20866e-05
-0.00259309
3.96824e-05
-0.00323157
4.88748e-05
-0.00401867
5.96954e-05
-0.00499277
7.33299e-05
-0.00618934
8.98792e-05
-0.00765691
0.000110178
-0.00944676
0.000134718
-0.0116342
0.000165465
-0.0143458
-0.0178507
0.000203948
6.83402e-08
-1.15483e-05
3.11604e-07
-4.45074e-05
3.66504e-07
-9.68282e-05
1.45506e-06
-0.000170315
2.46972e-06
-0.00026012
3.36472e-06
-0.000363947
4.99265e-06
-0.000487979
6.50155e-06
-0.000637552
8.68181e-06
-0.000820327
1.03334e-05
-0.0010437
1.46303e-05
-0.00132148
1.85756e-05
-0.00166075
2.48479e-05
-0.00207982
3.03039e-05
-0.00259855
3.61038e-05
-0.00323734
4.59602e-05
-0.00402853
5.51465e-05
-0.0050019
6.93805e-05
-0.00620359
8.53159e-05
-0.00767279
0.000103226
-0.00946471
0.000128423
-0.0116593
0.000163108
-0.0143804
-0.0178986
0.000211069
9.09714e-08
-1.16237e-05
3.21278e-07
-4.47064e-05
5.57659e-07
-9.70517e-05
1.24289e-06
-0.000170976
1.80573e-06
-0.000260684
2.04008e-06
-0.000364171
4.08512e-06
-0.000490031
5.65862e-06
-0.000639125
7.60273e-06
-0.00082228
9.98901e-06
-0.0010461
1.18338e-05
-0.00132333
1.53436e-05
-0.00166428
1.92779e-05
-0.00208376
2.59821e-05
-0.00260526
3.06316e-05
-0.00324199
3.98627e-05
-0.00403776
4.90414e-05
-0.00501107
5.97059e-05
-0.00621425
7.29291e-05
-0.00768601
8.99944e-05
-0.00948179
0.000108054
-0.0116774
0.000125454
-0.0143978
-0.01792
0.000146898
1.41497e-07
-1.17563e-05
3.91564e-07
-4.49372e-05
4.14754e-07
-9.7068e-05
1.46694e-06
-0.000172014
1.58804e-06
-0.000260805
3.29195e-06
-0.000365868
3.72361e-06
-0.000490466
5.2996e-06
-0.0006407
7.24933e-06
-0.000824234
1.06644e-05
-0.00104951
1.35983e-05
-0.00132627
1.71531e-05
-0.00166783
2.14666e-05
-0.00208808
2.51706e-05
-0.00260897
3.4432e-05
-0.00325126
3.93391e-05
-0.00404267
5.03316e-05
-0.00502207
6.07744e-05
-0.00622469
7.65919e-05
-0.00770184
9.42305e-05
-0.0094994
0.000114107
-0.0116973
0.000142808
-0.0144265
-0.0179524
0.000175162
7.57574e-08
-1.18126e-05
2.93258e-07
-4.51237e-05
6.39445e-07
-9.73938e-05
1.17977e-06
-0.00017253
2.56063e-06
-0.000262177
2.80971e-06
-0.000366104
4.8586e-06
-0.000492511
6.39964e-06
-0.000642235
8.28846e-06
-0.000826122
9.58659e-06
-0.00105081
1.34574e-05
-0.00133014
1.54404e-05
-0.00166981
2.10665e-05
-0.0020937
2.48946e-05
-0.0026128
3.23409e-05
-0.0032587
3.99577e-05
-0.00405029
4.76566e-05
-0.00502977
6.06111e-05
-0.00623767
7.4669e-05
-0.00771591
9.20149e-05
-0.00951678
0.000115371
-0.0117206
0.000141511
-0.0144526
-0.0179903
0.000179387
2.11494e-08
-1.18363e-05
1.19684e-07
-4.52281e-05
3.89429e-07
-9.76656e-05
8.32574e-07
-0.00017298
1.50569e-06
-0.00026285
2.39397e-06
-0.000366999
3.53242e-06
-0.000493646
4.94632e-06
-0.000643654
6.70392e-06
-0.000827872
9.86228e-06
-0.00105397
1.00602e-05
-0.00133033
1.46553e-05
-0.00167441
1.85685e-05
-0.0020976
2.30341e-05
-0.00261726
2.76813e-05
-0.00326334
3.63131e-05
-0.00405891
4.53649e-05
-0.00503883
5.64783e-05
-0.00624876
6.99206e-05
-0.00772937
8.6156e-05
-0.00953297
0.000106369
-0.0117409
0.000130618
-0.0144768
-0.0180183
0.000158692
-7.05589e-08
-1.17644e-05
-2.73472e-08
-4.52774e-05
6.48371e-07
-9.83363e-05
4.17816e-07
-0.000172759
1.79122e-06
-0.000264215
2.58447e-06
-0.0003678
2.56256e-06
-0.000493614
3.80153e-06
-0.0006449
5.37125e-06
-0.000829427
7.30001e-06
-0.0010559
1.1058e-05
-0.00133407
1.40107e-05
-0.00167736
1.61923e-05
-0.00209976
2.22561e-05
-0.00262331
2.75832e-05
-0.00326864
3.4643e-05
-0.00406595
4.34414e-05
-0.00504761
5.43203e-05
-0.00625963
6.60407e-05
-0.00774108
8.49379e-05
-0.00955192
0.000106052
-0.011762
0.000134528
-0.0145053
-0.0180563
0.000172528
1.22751e-08
-1.17939e-05
8.59589e-08
-4.53884e-05
6.60164e-07
-9.89252e-05
1.02347e-06
-0.000173156
9.64992e-08
-0.000263288
2.43251e-06
-0.000370158
2.51705e-06
-0.000493692
3.62712e-06
-0.000646023
5.03534e-06
-0.000830821
6.75955e-06
-0.00105763
8.65656e-06
-0.00133595
1.13496e-05
-0.00168005
1.47036e-05
-0.00210309
1.88766e-05
-0.00262747
2.40911e-05
-0.00327382
3.05666e-05
-0.00407239
4.0302e-05
-0.0050573
4.84409e-05
-0.00626773
6.21171e-05
-0.00775471
7.5419e-05
-0.00956521
9.39902e-05
-0.0117806
0.000115623
-0.014527
-0.0180848
0.000143994
9.86821e-08
-1.19009e-05
1.88217e-07
-4.5501e-05
-3.95527e-07
-9.83468e-05
5.39904e-07
-0.000174113
1.64185e-06
-0.000264388
5.63218e-07
-0.000369094
3.24946e-06
-0.000496372
4.29744e-06
-0.000647081
4.40691e-06
-0.00083092
6.01973e-06
-0.00105925
9.41665e-06
-0.00133934
1.05377e-05
-0.00168117
1.52017e-05
-0.00210775
1.76563e-05
-0.00262991
2.42484e-05
-0.00328038
2.88078e-05
-0.00407693
3.61845e-05
-0.00506464
4.74598e-05
-0.00627899
5.9139e-05
-0.00776635
7.16781e-05
-0.0095777
8.91703e-05
-0.011798
0.000110326
-0.0145482
-0.0181103
0.000135793
-1.40981e-07
-1.17738e-05
-1.23827e-07
-4.55487e-05
7.97719e-07
-9.92798e-05
4.17854e-07
-0.000173759
1.99164e-07
-0.00026417
1.46635e-06
-0.000370378
2.18736e-06
-0.000497089
3.11331e-06
-0.000648016
5.53364e-06
-0.000833334
5.77495e-06
-0.0010595
7.71522e-06
-0.00134127
1.01556e-05
-0.00168361
1.32663e-05
-0.00211085
1.71825e-05
-0.00263383
2.05402e-05
-0.00328373
2.97311e-05
-0.00408612
3.61706e-05
-0.00507107
4.54817e-05
-0.00628827
5.73783e-05
-0.00777824
7.57227e-05
-0.009596
9.24529e-05
-0.0118148
0.000111744
-0.0145675
-0.0181303
0.000131766
9.07295e-08
-1.18657e-05
1.6655e-07
-4.56296e-05
-1.22452e-07
-9.89914e-05
6.07735e-08
-0.000173948
1.79922e-06
-0.000265909
1.50545e-06
-0.000370088
1.04195e-06
-0.000496625
1.79019e-06
-0.000648769
2.82292e-06
-0.000834366
5.47279e-06
-0.00106215
5.8898e-06
-0.00134168
9.55893e-06
-0.00168729
1.21808e-05
-0.00211346
1.58915e-05
-0.00263755
2.06215e-05
-0.00328844
2.52543e-05
-0.00409075
3.40859e-05
-0.00507987
4.32273e-05
-0.0062974
5.27791e-05
-0.00778777
6.54975e-05
-0.0096087
8.80371e-05
-0.0118372
0.000112024
-0.0145914
-0.0181574
0.000139143
3.12375e-08
-1.18955e-05
3.21264e-07
-4.59214e-05
1.07444e-07
-9.87735e-05
9.20357e-07
-0.000174762
4.37309e-07
-0.000265422
1.64364e-06
-0.000371295
1.43834e-06
-0.000496416
2.25314e-06
-0.000649584
4.30905e-06
-0.00083642
5.73991e-06
-0.00106359
6.49281e-06
-0.00134244
8.52398e-06
-0.00168933
1.17589e-05
-0.0021167
1.67139e-05
-0.00264252
2.1411e-05
-0.00329315
2.55876e-05
-0.00409494
3.27106e-05
-0.00508701
4.12439e-05
-0.00630594
5.2937e-05
-0.00779947
6.52639e-05
-0.00962107
7.931e-05
-0.0118512
9.42402e-05
-0.0146065
-0.0181532
8.99814e-05
1.41505e-07
-1.20102e-05
1.5078e-07
-4.58823e-05
7.81355e-07
-9.93773e-05
7.34714e-07
-0.000174672
1.2597e-06
-0.00026594
1.97928e-06
-0.000371987
2.88584e-06
-0.000497325
4.96699e-06
-0.000651652
5.46091e-06
-0.000836927
7.30796e-06
-0.00106543
1.07016e-05
-0.00134584
1.24914e-05
-0.00169113
1.58759e-05
-0.00212009
2.07701e-05
-0.00264744
2.65473e-05
-0.00329894
3.50393e-05
-0.00410347
4.5371e-05
-0.00509735
5.46589e-05
-0.00631528
6.70845e-05
-0.00781189
8.63793e-05
-0.0096404
0.000109686
-0.0118745
0.000138659
-0.0146354
-0.0181951
0.000180657
6.29392e-08
-1.20509e-05
2.26865e-07
-4.60003e-05
4.80145e-07
-9.96126e-05
1.41306e-06
-0.00017557
1.29253e-06
-0.000265821
1.97034e-06
-0.00037265
3.65278e-06
-0.000499017
3.85456e-06
-0.000651853
5.22713e-06
-0.000838313
6.96378e-06
-0.00106718
9.18315e-06
-0.00134808
1.31387e-05
-0.0016951
1.55023e-05
-0.00212246
2.11507e-05
-0.0026531
2.50728e-05
-0.00330286
3.18944e-05
-0.00411031
4.03922e-05
-0.00510584
5.2615e-05
-0.00632752
6.53415e-05
-0.00782461
8.18868e-05
-0.00965698
0.00010317
-0.0118959
0.000128716
-0.014661
-0.0182338
0.000167514
-2.31358e-08
-1.19955e-05
6.23972e-08
-4.60286e-05
1.77027e-07
-9.9698e-05
3.81743e-07
-0.000175732
1.31104e-06
-0.000266742
1.77283e-06
-0.000373092
1.57162e-06
-0.000498818
3.33471e-06
-0.00065361
4.47231e-06
-0.000839452
4.69309e-06
-0.0010674
7.97729e-06
-0.00135136
1.04915e-05
-0.00169761
1.36716e-05
-0.00212563
1.61104e-05
-0.00265552
2.26136e-05
-0.00330935
2.87411e-05
-0.00411641
3.46202e-05
-0.0051117
4.53286e-05
-0.00633821
5.66959e-05
-0.00783598
7.08536e-05
-0.00967111
8.65766e-05
-0.0119116
0.000109357
-0.0146836
-0.0182605
0.000135959
6.85431e-08
-1.20277e-05
4.64431e-08
-4.59645e-05
5.64108e-08
-9.96599e-05
-5.45847e-07
-0.000175098
-4.01247e-07
-0.00026685
1.22404e-07
-0.000373598
1.56302e-06
-0.000500229
1.50551e-06
-0.000653539
2.43872e-06
-0.00084036
5.23518e-06
-0.00107018
5.86971e-06
-0.00135197
8.35777e-06
-0.00170008
1.26483e-05
-0.0021299
1.52514e-05
-0.00265811
2.12698e-05
-0.00331535
2.71019e-05
-0.00412225
3.42276e-05
-0.00511883
3.95696e-05
-0.0063436
5.30633e-05
-0.00784948
6.37001e-05
-0.00968174
8.06274e-05
-0.0119285
9.90552e-05
-0.014702
-0.0182714
0.000109925
-8.51155e-08
-2.02514e-08
5.40412e-07
8.10958e-07
1.22303e-06
1.69357e-06
2.76878e-06
3.7589e-06
5.4896e-06
6.14677e-06
9.84399e-06
1.27795e-05
1.63567e-05
2.20114e-05
2.5832e-05
3.24845e-05
4.05716e-05
5.17662e-05
6.02225e-05
7.59917e-05
9.31081e-05
0.000112592
0.000114463
3.07554e-08
-1.22653e-05
1.22357e-05
1.46698e-07
-4.73933e-05
4.72666e-05
3.86859e-07
-0.000102389
0.000102158
7.20632e-07
-0.000180333
0.000179981
1.16711e-06
-0.00027338
0.000272946
2.55484e-06
-0.000384907
0.000383505
2.35437e-06
-0.000515461
0.000515688
4.15622e-06
-0.000674081
0.000672284
4.03556e-06
-0.000867552
0.0008677
5.19072e-06
-0.00110545
0.00110433
6.56333e-06
-0.00139777
0.00139644
8.2174e-06
-0.0017603
0.00175871
1.01266e-05
-0.00220548
0.0022036
1.24305e-05
-0.00275585
0.00275362
1.50958e-05
-0.0034376
0.00343493
1.83905e-05
-0.00427772
0.0042745
2.21733e-05
-0.00531414
0.00531033
2.71799e-05
-0.00659166
0.00658676
3.44246e-05
-0.00815948
0.0081522
3.97058e-05
-0.0100713
0.0100663
4.95601e-05
-0.0124013
0.0123914
6.12204e-05
-0.0152684
0.0152569
-0.018938
0.0189236
7.57673e-05
2.37674e-08
-1.22915e-05
-1.87056e-07
-4.72269e-05
-6.65163e-08
-0.000102493
1.2141e-07
-0.000180548
5.14472e-07
-0.000273731
9.93029e-07
-0.000385381
1.59454e-06
-0.00051602
2.31825e-06
-0.000674768
3.18236e-06
-0.000868375
4.20813e-06
-0.00110641
5.36519e-06
-0.0013989
6.76775e-06
-0.00176162
8.31772e-06
-0.00220703
1.15216e-05
-0.00275898
1.22804e-05
-0.00343838
1.49753e-05
-0.00428037
1.82623e-05
-0.00531746
2.20095e-05
-0.0065954
2.63257e-05
-0.00816382
3.06897e-05
-0.0100758
3.51061e-05
-0.0124057
3.72782e-05
-0.0152707
-0.0189399
3.90402e-05
-3.99107e-08
-1.23163e-05
-2.82869e-07
-4.70837e-05
1.27699e-07
-0.000102972
-2.28754e-07
-0.000180253
1.4693e-06
-0.000275463
1.08761e-06
-0.000385014
7.22871e-07
-0.000515678
2.29855e-06
-0.000676333
3.02934e-06
-0.000869135
3.94963e-06