/*--------------------------------*- C++ -*----------------------------------*\
  =========                 |
  \\      /  F ield         | OpenFOAM: The Open Source CFD Toolbox
   \\    /   O peration     | Website:  https://openfoam.org
    \\  /    A nd           | Version:  10
     \\/     M anipulation  |
\*---------------------------------------------------------------------------*/
FoamFile
{
    format      ascii;
    class       volVectorField;
    location    "400";
    object      U;
}
// * * * * * * * * * * * * * * * * * * * * * * * * * * * * * * * * * * * * * //

dimensions      [0 1 -1 0 0 0 0];

internalField   nonuniform List<vector> 
96890
(
(0.988555 -0.132947 2.62798e-23)
(3.20481 -0.432114 -9.32743e-23)
(5.86991 -0.793026 9.64017e-23)
(8.72197 -1.17636 1.7574e-22)
(11.2088 -1.51048 -5.8803e-19)
(13.1928 -1.77662 4.64035e-19)
(14.8205 -1.99314 3.8061e-19)
(16.2173 -2.17793 -3.24569e-19)
(17.4598 -2.3412 5.44363e-22)
(18.598 -2.48894 2.55009e-19)
(19.6642 -2.62581 -2.329e-19)
(20.6794 -2.75443 2.13936e-19)
(21.6589 -2.87671 -1.93264e-19)
(22.6149 -2.99357 -1.79857e-19)
(23.5558 -3.10653 1.65308e-19)
(24.4861 -3.21527 1.44829e-19)
(25.4064 -3.31998 -1.35629e-19)
(26.31 -3.41873 0)
(27.1781 -3.50894 0)
(27.9914 -3.58737 -9.16674e-20)
(28.7665 -3.6559 6.60471e-20)
(29.5848 -3.73277 -8.27967e-21)
(30.7004 -3.79941 3.09904e-20)
(2.11044 -0.0750551 2.54267e-19)
(6.74823 -0.239724 -4.08914e-19)
(11.8656 -0.421338 3.75592e-19)
(16.1959 -0.574941 6.46799e-23)
(19.3367 -0.686156 -2.07831e-19)
(21.6993 -0.769669 0)
(23.5987 -0.836594 0)
(25.2172 -0.89328 -1.09084e-22)
(26.6525 -0.943146 9.73832e-20)
(27.9615 -0.988175 3.27778e-22)
(29.1816 -1.02949 -7.91963e-20)
(30.3372 -1.06797 -2.78578e-22)
(31.4444 -1.10396 6.53192e-20)
(32.5134 -1.13774 -5.9165e-20)
(33.5473 -1.16934 -3.69316e-24)
(34.5401 -1.19845 0)
(35.4756 -1.22456 -1.32542e-21)
(36.3317 -1.24707 1.13077e-21)
(37.0941 -1.26552 3.86645e-21)
(37.79 -1.28053 2.72904e-20)
(38.4974 -1.2922 -2.62898e-20)
(39.32 -1.30276 6.18653e-21)
(40.4232 -1.32701 0)
(2.10811 -0.0729289 -5.10492e-19)
(6.74054 -0.233276 7.90409e-25)
(11.8572 -0.41031 3.76438e-19)
(16.1924 -0.560274 -2.84121e-19)
(19.3414 -0.669079 4.16746e-19)
(21.7147 -0.750948 -3.21618e-19)
(23.6209 -0.816354 6.55261e-24)
(25.2443 -0.871718 7.30746e-24)
(26.6836 -0.920456 8.36654e-24)
(27.9971 -0.964475 1.74286e-19)
(29.2217 -1.00492 -1.56825e-19)
(30.3813 -1.04258 1.61964e-23)
(31.4922 -1.07781 1.30896e-19)
(32.5637 -1.11087 -6.01702e-20)
(33.5983 -1.14172 1.69074e-21)
(34.5898 -1.17019 4.8283e-20)
(35.5219 -1.19573 1.28293e-21)
(36.3733 -1.21788 -4.06455e-23)
(37.1324 -1.23629 -3.28522e-20)
(37.8271 -1.25186 0)
(38.5365 -1.26563 3.18114e-21)
(39.3672 -1.27639 -2.47455e-20)
(40.4753 -1.3088 2.08526e-20)
(0.837294 -0.116868 8.29934e-23)
(2.70259 -0.37901 -1.17176e-18)
(4.94794 -0.695659 1.28461e-18)
(7.41177 -1.04494 0)
(9.61907 -1.35921 -4.63815e-22)
(11.3887 -1.61222 7.51527e-19)
(12.8426 -1.82086 -6.09543e-19)
(14.0995 -2.00186 -5.15106e-19)
(15.2327 -2.16399 9.02015e-19)
(16.2881 -2.31343 -4.03936e-19)
(17.2944 -2.45394 0)
(18.2712 -2.58694 -1.29639e-21)
(19.2331 -2.71398 -3.08346e-19)
(20.1909 -2.83309 2.9139e-19)
(21.1476 -2.94874 -4.27596e-21)
(22.1094 -3.05167 -3.89103e-21)
(23.0722 -3.14094 1.36005e-20)
(24.0193 -3.21447 0)
(24.9403 -3.26813 0)
(25.8118 -3.29887 9.23887e-21)
(26.6377 -3.30374 0)
(27.4947 -3.2984 1.35673e-20)
(28.6432 -3.33347 -2.45319e-20)
(0.0322203 0.0125112 0)
(0.0860239 0.0347862 0)
(0.149539 0.0593868 0)
(0.230658 0.0856904 0)
(0.305537 0.105126 0)
(0.315573 0.120536 0)
(0.382078 0.125561 0)
(0.56641 0.118126 0)
(0.796307 0.104724 0)
(1.08296 0.0879518 0)
(1.40374 0.0714414 0)
(1.79528 0.0553884 0)
(2.25735 0.0402008 0)
(2.786 0.0259544 0)
(3.39158 0.0124579 0)
(4.08242 -0.00139883 0)
(4.84602 -0.0166797 0)
(5.67518 -0.0335624 0)
(6.57295 -0.0510323 0)
(7.53833 -0.0660063 0)
(8.59747 -0.0829779 0)
(9.66217 -0.0942634 0)
(11.1076 -0.121691 0)
(0.819743 -0.113593 -8.00035e-23)
(2.68023 -0.371906 1.09016e-18)
(4.96045 -0.687026 7.4099e-24)
(7.49722 -1.03689 -1.11409e-18)
(9.79195 -1.35335 -4.28479e-22)
(11.6528 -1.6079 0)
(13.1901 -1.8165 5.69523e-22)
(14.5186 -1.9947 0)
(15.7114 -2.15271 8.05035e-22)
(16.8149 -2.29621 -7.17936e-22)
(17.8587 -2.42985 0)
(18.8639 -2.55522 -3.11169e-19)
(19.8448 -2.67441 2.84046e-19)
(20.8123 -2.78821 -4.07363e-21)
(21.7732 -2.89682 0)
(22.7317 -2.99981 2.1531e-19)
(23.6871 -3.09636 -1.99032e-19)
(24.6315 -3.18384 5.20903e-21)
(25.5466 -3.25915 4.28941e-22)
(26.4097 -3.31726 -3.75301e-22)
(27.2251 -3.35852 1.41796e-20)
(28.0678 -3.39246 1.11508e-19)
(29.1956 -3.42566 -9.02894e-20)
(0.815114 -0.113308 -2.97558e-24)
(2.65714 -0.37041 0)
(4.90654 -0.683662 1.25425e-18)
(7.40603 -1.03168 -1.17173e-18)
(9.6682 -1.34565 -9.42285e-19)
(11.5006 -1.5988 7.38094e-19)
(13.0171 -1.80693 5.98305e-19)
(14.3304 -1.98461 5.8081e-23)
(15.5119 -2.14257 -4.4171e-19)
(16.6079 -2.28598 7.80567e-22)
(17.6469 -2.41882 3.56829e-19)
(18.648 -2.54334 -3.24484e-19)
(19.6252 -2.66115 0)
(20.5882 -2.77274 2.73846e-19)
(21.5438 -2.87901 1.90143e-22)
(22.496 -2.97932 -2.26567e-19)
(23.4446 -3.07382 -2.62448e-22)
(24.3842 -3.15915 -1.79755e-19)
(25.2979 -3.23215 1.46392e-19)
(26.1607 -3.28622 1.42254e-19)
(26.9752 -3.32075 -1.4187e-20)
(27.8189 -3.35011 -1.34994e-20)
(28.9555 -3.3864 -7.11481e-20)
(0.950052 -0.129361 1.21833e-22)
(3.07859 -0.419567 -2.06645e-22)
(5.64468 -0.768422 2.24131e-22)
(8.4183 -1.14523 0)
(10.8549 -1.47512 3.3552e-22)
(12.8019 -1.7378 2.64032e-22)
(14.4001 -1.95255 0)
(15.7737 -2.13536 3.52576e-22)
(16.9993 -2.29717 0)
(18.1255 -2.44396 0)
(19.1838 -2.5803 -1.00325e-21)
(20.1959 -2.70856 -2.37953e-19)
(21.1773 -2.83049 2.19986e-19)
(22.1381 -2.94741 2.03237e-19)
(23.0858 -3.05987 -1.83864e-19)
(24.0249 -3.16812 -2.54542e-21)
(24.9554 -3.2716 -4.54845e-21)
(25.8704 -3.36901 -1.30691e-19)
(26.7512 -3.45692 1.06167e-19)
(27.578 -3.53259 -1.03534e-19)
(28.3636 -3.59543 8.49893e-20)
(29.1922 -3.65778 4.05541e-22)
(30.3245 -3.75155 0)
(0.932878 -0.127306 -1.26985e-22)
(3.02544 -0.41326 -4.4352e-24)
(5.55258 -0.757625 4.81752e-24)
(8.29447 -1.13081 -2.19554e-22)
(10.7135 -1.45909 -3.36838e-22)
(12.6474 -1.72114 -2.64841e-22)
(14.2376 -1.9342 0)
(15.6042 -2.11661 -3.83349e-22)
(16.8246 -2.27774 -3.36752e-19)
(17.947 -2.42419 3.00557e-19)
(19.0027 -2.55996 0)
(20.0134 -2.68766 -9.55765e-22)
(20.9942 -2.80919 0)
(21.9559 -2.92577 -1.60768e-21)
(22.9057 -3.0378 0)
(23.8478 -3.14539 2.76473e-21)
(24.7819 -3.24828 -4.94262e-21)
(25.7009 -3.3447 4.34887e-21)
(26.586 -3.43138 -7.53041e-21)
(27.4171 -3.50515 -9.52961e-20)
(28.2056 -3.56601 1.65836e-19)
(29.0348 -3.62512 -7.93466e-20)
(30.1653 -3.70599 1.84922e-20)
(0.915587 -0.125362 1.32339e-22)
(2.97191 -0.407378 1.10015e-22)
(5.45949 -0.747468 -1.19669e-22)
(8.16813 -1.11733 4.50084e-22)
(10.5666 -1.44385 -3.67325e-22)
(12.487 -1.70471 0)
(14.0678 -1.91692 0)
(15.4264 -2.09898 3.83803e-22)
(16.6407 -2.2591 -3.50916e-19)
(17.7588 -2.40514 3.1371e-19)
(18.8117 -2.54037 0)
(19.8207 -2.66778 -1.03709e-21)
(20.801 -2.78895 0)
(21.7637 -2.90492 -1.7443e-21)
(22.7154 -3.01662 -1.99601e-19)
(23.6606 -3.12373 1.7782e-19)
(24.599 -3.22603 1.66447e-19)
(25.5227 -3.32186 -2.887e-19)
(26.4132 -3.40782 1.3072e-19)
(27.2501 -3.48088 0)
(28.0439 -3.54146 1.13382e-20)
(28.8778 -3.60418 -8.27395e-20)
(30.0107 -3.68923 3.80276e-20)
(0.895326 -0.123002 -1.37922e-22)
(2.91037 -0.400155 0)
(5.35449 -0.735055 0)
(8.02712 -1.10088 -9.64251e-19)
(10.4044 -1.4251 7.72069e-19)
(12.3115 -1.68438 0)
(13.8815 -1.8957 0)
(15.2332 -2.07662 0)
(16.4424 -2.23589 0)
(17.5566 -2.38115 6.26083e-22)
(18.6068 -2.51556 1.18275e-21)
(19.6143 -2.6422 2.11802e-21)
(20.5945 -2.76239 -2.485e-19)
(21.5581 -2.87746 2.295e-19)
(22.5121 -2.98812 0)
(23.4607 -3.09386 1.88112e-19)
(24.4033 -3.19455 -1.68255e-19)
(25.3324 -3.28831 -4.73044e-21)
(26.2289 -3.37152 0)
(27.0727 -3.44099 -1.1055e-19)
(27.8735 -3.49595 1.77498e-22)
(28.7141 -3.54858 8.69506e-20)
(29.8505 -3.63322 -5.88595e-20)
(0.871515 -0.119993 7.03811e-23)
(2.83826 -0.39131 -1.00032e-18)
(5.23218 -0.720265 -9.09236e-24)
(7.86435 -1.0809 1.01016e-18)
(10.2159 -1.40313 -8.09798e-19)
(12.1101 -1.66085 6.34957e-19)
(13.6707 -1.87099 0)
(15.0159 -2.05081 0)
(16.2205 -2.20969 7.64275e-22)
(17.3312 -2.3541 6.82251e-22)
(18.3792 -2.48777 -1.18417e-21)
(19.3858 -2.61369 -2.83916e-19)
(20.3662 -2.73302 2.59301e-19)
(21.3309 -2.84747 -2.37726e-19)
(22.2873 -2.95695 2.20382e-19)
(23.2393 -3.06166 0)
(24.1865 -3.16091 -5.61404e-21)
(25.1209 -3.25276 -1.50126e-19)
(26.0235 -3.33383 1.42961e-19)
(26.8741 -3.40076 -1.1571e-19)
(27.6808 -3.45325 1.0092e-19)
(28.5229 -3.49982 -2.26607e-20)
(29.6607 -3.58647 1.02849e-19)
(0.848969 -0.11738 0)
(2.76857 -0.383056 5.39276e-24)
(5.11118 -0.705982 0)
(7.7001 -1.06257 0)
(10.0258 -1.38138 -8.50693e-19)
(11.9045 -1.63679 6.66482e-19)
(13.453 -1.84631 0)
(14.7893 -2.02449 0)
(15.987 -2.18253 -1.56464e-21)
(17.0938 -2.32574 -3.57381e-19)
(18.1397 -2.45855 3.23522e-19)
(19.1451 -2.5835 -2.94356e-19)
(20.1256 -2.70171 2.70906e-19)
(21.0913 -2.81498 2.50355e-19)
(22.0496 -2.92296 -2.30131e-19)
(23.0044 -3.02605 -2.0532e-19)
(23.9553 -3.12314 1.8942e-19)
(24.8942 -3.21248 -1.67282e-19)
(25.8024 -3.29034 4.115e-22)
(26.6592 -3.35272 1.13411e-19)
(27.4709 -3.39949 1.05364e-19)
(28.3159 -3.43483 -8.39432e-22)
(29.4509 -3.49402 -1.06923e-19)
(0.969012 -0.131586 -4.78672e-19)
(3.1352 -0.426092 2.48217e-24)
(5.73956 -0.779313 8.77881e-19)
(8.54024 -1.15842 8.0321e-19)
(10.991 -1.48956 -1.28359e-18)
(12.949 -1.75354 5.05285e-19)
(14.5549 -1.96877 0)
(15.9336 -2.15209 3.51975e-19)
(17.1636 -2.3143 2.30952e-23)
(18.2935 -2.46186 -5.53147e-19)
(19.3547 -2.5986 5.03214e-19)
(20.3684 -2.72715 -8.85177e-22)
(21.3495 -2.84952 -2.1088e-19)
(22.3089 -2.96671 1.48193e-21)
(23.2545 -3.07953 0)
(24.1906 -3.18836 1.64465e-19)
(25.1176 -3.2924 -1.33517e-19)
(26.0287 -3.3906 1.25263e-19)
(26.9056 -3.47946 -2.09853e-19)
(27.7288 -3.55615 9.32833e-20)
(28.5124 -3.6187 1.00091e-20)
(29.3402 -3.68414 9.36771e-21)
(30.4781 -3.78099 -6.60202e-20)
(0.969808 -0.107971 0)
(3.12849 -0.382602 -8.58315e-25)
(5.62077 -0.688614 -1.22847e-20)
(8.18267 -1.01674 -5.10187e-23)
(10.399 -1.33032 1.93166e-20)
(12.1316 -1.59671 0)
(13.5194 -1.81865 -2.18506e-20)
(14.6968 -2.01172 2.38643e-20)
(15.748 -2.18526 -5.20321e-23)
(16.7245 -2.34689 3.25623e-20)
(17.6611 -2.50458 -4.1128e-20)
(18.5692 -2.65893 -1.96678e-22)
(19.4533 -2.81994 1.03394e-19)
(20.3134 -2.99088 -2.97429e-19)
(21.1877 -3.05227 3.17211e-21)
(22.0065 -3.15622 1.72529e-19)
(22.8184 -3.23698 -2.31722e-19)
(23.7067 -3.27351 2.07941e-19)
(24.5977 -3.28822 -1.79921e-19)
(25.456 -3.2704 -1.64743e-19)
(26.2858 -3.23686 1.35653e-19)
(27.1672 -3.18861 0)
(28.355 -3.13995 0)
(0.982067 -0.13283 5.73045e-23)
(3.17548 -0.429945 1.90337e-22)
(5.80936 -0.785627 8.43137e-19)
(8.63409 -1.16766 -7.69874e-19)
(11.1012 -1.50032 -3.06139e-22)
(13.0717 -1.76453 0)
(14.6877 -1.98074 0)
(16.0747 -2.16505 -3.36598e-22)
(17.3114 -2.32799 2.96806e-19)
(18.4463 -2.47579 -2.65447e-19)
(19.5103 -2.61301 -2.41625e-19)
(20.5251 -2.74199 2.2027e-19)
(21.5059 -2.86476 0)
(22.4639 -2.98229 -1.48217e-21)
(23.4072 -3.09578 -2.59693e-21)
(24.3402 -3.20538 -9.6104e-23)
(25.2638 -3.31067 1.37004e-19)
(26.1708 -3.4103 -1.20598e-19)
(27.0433 -3.50142 0)
(27.8617 -3.58082 -8.4436e-20)
(28.6415 -3.64794 6.86139e-20)
(29.4674 -3.72642 0)
(30.6002 -3.81789 -8.04383e-20)
(1.10549 -0.145093 -5.72698e-19)
(3.55922 -0.466507 4.85403e-19)
(6.47447 -0.848241 -5.20374e-19)
(9.5249 -1.24803 4.69044e-19)
(12.1263 -1.58833 0)
(14.1804 -1.85651 -2.96141e-19)
(15.8553 -2.07479 2.44327e-19)
(17.2819 -2.26039 4.09729e-22)
(18.5446 -2.42379 0)
(19.6936 -2.57216 1.66682e-19)
(20.7625 -2.70928 1.97822e-23)
(21.7752 -2.83842 -2.79104e-19)
(22.7483 -2.9616 2.55462e-19)
(23.6942 -3.08044 -1.16879e-19)
(24.6225 -3.19578 -1.093e-19)
(25.5392 -3.30851 -8.00877e-24)
(26.4461 -3.41844 8.70181e-20)
(27.337 -3.52453 7.15979e-20)
(28.192 -3.62336 7.74451e-23)
(28.9964 -3.71394 7.02018e-21)
(29.775 -3.79681 -9.93225e-20)
(30.6123 -3.85828 3.86916e-20)
(31.7866 -4.05716 -9.92119e-21)
(1.00597 -0.136331 4.20699e-19)
(3.25834 -0.438987 -8.54488e-23)
(5.96068 -0.801277 -9.615e-23)
(8.83862 -1.1885 -7.0092e-19)
(11.3436 -1.52329 -1.35134e-23)
(13.3389 -1.79 4.4138e-19)
(14.9731 -2.00709 3.62431e-19)
(16.3732 -2.19163 -3.08959e-19)
(17.6182 -2.35454 -2.29741e-23)
(18.7573 -2.50237 4.66233e-22)
(19.8231 -2.63877 -2.20349e-19)
(20.8373 -2.76712 -8.38898e-22)
(21.8153 -2.88903 -9.23234e-23)
(22.7696 -3.00554 1.33149e-21)
(23.7082 -3.11808 2.34979e-21)
(24.6364 -3.2263 1.38163e-19)
(25.5548 -3.33029 3.83812e-21)
(26.4566 -3.42805 0)
(27.3228 -3.51653 0)
(28.1357 -3.59199 8.19692e-20)
(28.9143 -3.65609 -6.24406e-20)
(29.7448 -3.71631 8.2791e-21)
(30.8682 -3.77722 -2.92604e-20)
(1.02629 -0.137586 -4.84024e-23)
(3.31153 -0.444396 3.45204e-24)
(6.0436 -0.810259 0)
(8.9469 -1.19925 0)
(11.4655 -1.5353 -5.35511e-19)
(13.4711 -1.8025 4.22567e-19)
(15.1111 -2.01997 -3.4664e-19)
(16.5132 -2.20489 2.9621e-19)
(17.7595 -2.36786 -5.19145e-22)
(18.8991 -2.51585 -2.3406e-19)
(19.9644 -2.65278 2.1141e-19)
(20.9776 -2.78161 7.43386e-22)
(21.9543 -2.90406 -1.42249e-21)
(22.9069 -3.02163 -1.25134e-21)
(23.8435 -3.13529 -2.37932e-21)
(24.7696 -3.24518 -1.30676e-19)
(25.6859 -3.35129 1.16631e-19)
(26.586 -3.45198 -1.05893e-19)
(27.4503 -3.54431 9.16669e-20)
(28.2619 -3.62501 -4.84428e-21)
(29.041 -3.6968 6.06349e-20)
(29.8793 -3.76769 -2.13698e-22)
(31.0166 -3.87193 -5.53735e-20)
(1.03781 -0.138821 4.84038e-23)
(3.34823 -0.448166 3.42665e-24)
(6.10798 -0.816704 7.06088e-19)
(9.03438 -1.20784 -6.41234e-19)
(11.5671 -1.54492 5.12019e-19)
(13.5819 -1.81283 2.58249e-23)
(15.2271 -2.03058 -3.32366e-19)
(16.6331 -2.21547 -2.82805e-22)
(17.881 -2.379 4.76708e-22)
(19.0218 -2.52694 -4.2771e-22)
(20.0875 -2.66412 8.11532e-22)
(21.1002 -2.79304 -7.43259e-22)
(22.0765 -2.91578 0)
(23.028 -3.03372 1.56981e-19)
(23.963 -3.1477 3.55812e-23)
(24.887 -3.2581 -1.31552e-19)
(25.8012 -3.36491 0)
(26.6986 -3.46662 0)
(27.5602 -3.56036 0)
(28.3682 -3.64335 4.84245e-21)
(29.1423 -3.71835 -5.80452e-20)
(29.9743 -3.79603 -8.719e-23)
(31.1098 -3.91366 5.45653e-20)
(1.05202 -0.140343 -4.44692e-23)
(3.39119 -0.452716 3.2264e-24)
(6.1807 -0.824427 0)
(9.12994 -1.2176 0)
(11.6748 -1.5556 0)
(13.6944 -1.82341 3.77273e-22)
(15.3423 -2.04116 0)
(16.7508 -2.22633 0)
(18.0002 -2.38981 -4.76005e-22)
(19.1414 -2.53781 1.75742e-23)
(20.207 -2.67509 7.45187e-22)
(21.2196 -2.80403 0)
(22.1953 -2.92693 1.63823e-19)
(23.1455 -3.04489 1.22001e-21)
(24.0791 -3.1591 -1.37146e-19)
(25.0017 -3.26967 0)
(25.9144 -3.3767 0)
(26.8105 -3.47864 0)
(27.6709 -3.57242 5.16546e-21)
(28.4779 -3.65538 0)
(29.2517 -3.72795 0)
(30.0867 -3.80143 -4.97624e-20)
(31.2292 -3.91194 7.68228e-20)
(1.06334 -0.141147 3.56191e-19)
(3.4301 -0.456182 7.51532e-23)
(6.2464 -0.831197 0)
(9.21485 -1.22505 0)
(11.767 -1.56384 0)
(13.7887 -1.83137 -3.61304e-22)
(15.4397 -2.04954 3.03919e-19)
(16.8502 -2.23491 -2.59561e-19)
(18.1016 -2.39863 0)
(19.2443 -2.54727 -2.05044e-19)
(20.3109 -2.68484 3.739e-19)
(21.3237 -2.81448 -1.71416e-19)
(22.2988 -2.9379 0)
(23.2483 -3.05672 -1.10964e-21)
(24.1807 -3.17184 2.02667e-21)
(25.1019 -3.28376 -1.21349e-19)
(26.0131 -3.39227 2.16846e-19)
(26.9078 -3.49631 -9.67561e-20)
(27.767 -3.59279 -5.17988e-21)
(28.5731 -3.67919 -7.427e-20)
(29.3463 -3.75457 6.12777e-20)
(30.182 -3.83957 -6.98019e-21)
(31.339 -3.96656 -1.02867e-20)
(1.07032 -0.142453 6.86243e-19)
(3.45283 -0.457942 -5.81235e-19)
(6.2848 -0.833169 6.23705e-19)
(9.26831 -1.22871 -1.12752e-18)
(11.8264 -1.56747 9.85374e-23)
(13.8548 -1.83521 -7.2086e-24)
(15.5115 -2.05365 2.92133e-19)
(16.9263 -2.23926 -2.48841e-22)
(18.1819 -2.40336 2.20356e-19)
(19.3276 -2.55217 -1.98059e-19)
(20.3963 -2.69005 1.79641e-19)
(21.41 -2.81982 3.7675e-23)
(22.3852 -2.94337 -1.50969e-19)
(23.3341 -3.06253 4.2345e-23)
(24.2657 -3.17791 -2.03143e-21)
(25.1855 -3.29043 1.15698e-19)
(26.0948 -3.39966 -6.36849e-21)
(26.9869 -3.50478 5.77334e-21)
(27.8434 -3.60313 -1.52565e-19)
(28.6456 -3.69142 2.56535e-23)
(29.4137 -3.77159 -7.92924e-23)
(30.2397 -3.86935 5.32927e-20)
(31.3838 -3.98145 -1.19806e-20)
(1.07735 -0.142483 -3.2999e-19)
(3.47 -0.459421 -3.04402e-24)
(6.31413 -0.835224 1.45693e-22)
(9.31251 -1.23062 -1.28616e-22)
(11.8816 -1.57016 4.3003e-19)
(13.9204 -1.83815 1.84474e-22)
(15.5853 -2.05688 -2.79943e-19)
(17.0065 -2.24251 0)
(18.2661 -2.40621 2.11756e-19)
(19.4148 -2.55452 -1.9036e-19)
(20.4848 -2.69184 -1.7311e-19)
(21.4989 -2.82075 1.58802e-19)
(22.4741 -2.94362 -5.10306e-23)
(23.4224 -3.06169 4.6899e-23)
(24.3532 -3.17607 -1.20795e-19)
(25.2721 -3.28733 1.12776e-19)
(26.1801 -3.39522 3.16687e-21)
(27.0704 -3.49844 -1.22902e-22)
(27.9239 -3.5947 -4.82183e-21)
(28.7232 -3.67961 -6.51231e-20)
(29.488 -3.75991 5.70146e-20)
(30.3064 -3.84703 -5.20374e-20)
(31.4389 -3.93044 5.83716e-20)
(1.08522 -0.142972 -3.14381e-19)
(3.49585 -0.460844 5.30645e-19)
(6.36065 -0.838819 -7.10876e-23)
(9.37617 -1.23574 6.00264e-24)
(11.9614 -1.57532 -1.0233e-22)
(14.0111 -1.84436 1.54456e-22)
(15.6839 -2.06261 2.66574e-19)
(17.1083 -2.24804 2.37591e-22)
(18.3696 -2.41113 -2.0158e-19)
(19.5187 -2.55893 1.81308e-19)
(20.5884 -2.69535 2.94296e-23)
(21.6023 -2.82344 -3.03101e-19)
(22.5766 -2.94549 -1.15179e-21)
(23.524 -3.06251 1.28848e-19)
(24.454 -3.17585 -1.87068e-21)
(25.3723 -3.28574 -1.61256e-21)
(26.2801 -3.39225 0)
(27.1706 -3.49357 -5.19335e-21)
(28.0238 -3.58678 4.37786e-21)
(28.8251 -3.66759 2.08402e-22)
(29.5955 -3.7445 0)
(30.4235 -3.80736 -4.86223e-20)
(31.5486 -3.89029 -2.17526e-20)
(1.09681 -0.144093 -2.99064e-19)
(3.5324 -0.464251 5.0592e-19)
(6.4285 -0.844877 6.48088e-23)
(9.46285 -1.24346 1.22201e-22)
(12.0583 -1.58314 -3.89389e-19)
(14.1113 -1.85198 3.08243e-19)
(15.7848 -2.07002 0)
(17.2096 -2.2553 -4.25767e-22)
(18.4713 -2.41826 0)
(19.6196 -2.56614 -1.72844e-19)
(20.6881 -2.70258 1.57214e-19)
(21.7011 -2.83093 1.44921e-19)
(22.6745 -2.95331 1.56339e-23)
(23.621 -3.07088 -1.22978e-19)
(24.55 -3.18494 0)
(25.4678 -3.29581 1.61586e-21)
(26.3756 -3.40356 0)
(27.2669 -3.50666 4.96138e-21)
(28.1215 -3.60165 5.98408e-20)
(28.926 -3.68638 -5.89093e-20)
(29.703 -3.7682 5.14857e-20)
(30.5422 -3.82568 5.47844e-21)
(31.6931 -3.96253 -6.10931e-20)
(1.18473 -0.145954 -5.73388e-20)
(3.80346 -0.467968 0)
(6.89099 -0.847182 -1.03461e-19)
(10.0881 -1.23993 9.32033e-20)
(12.7961 -1.57293 0)
(14.9362 -1.83552 -2.69697e-23)
(16.6764 -2.04868 -4.99779e-20)
(18.1537 -2.2295 4.32524e-20)
(19.4567 -2.38856 -3.86137e-20)
(20.6387 -2.53244 3.50372e-20)
(21.7363 -2.66562 -7.91971e-23)
(22.7733 -2.79096 -2.97409e-20)
(23.7685 -2.91053 4.04068e-22)
(24.7359 -3.02611 2.53967e-20)
(25.6862 -3.13874 -2.30105e-20)
(26.6259 -3.24893 -6.84041e-22)
(27.555 -3.35663 1.89612e-20)
(28.4629 -3.46003 0)
(29.3347 -3.55691 -1.45703e-20)
(30.1661 -3.64564 1.09703e-20)
(30.9718 -3.72815 -8.71795e-21)
(31.8161 -3.80415 1.88248e-20)
(32.9207 -3.90152 -5.57149e-21)
(1.19193 -0.146287 0)
(3.82099 -0.468496 0)
(6.9138 -0.848127 0)
(10.1153 -1.24068 7.85899e-20)
(12.8265 -1.57274 -6.31076e-20)
(14.9688 -1.83515 5.0585e-20)
(16.7094 -2.04811 -4.21236e-20)
(18.188 -2.22863 0)
(19.4919 -2.38765 3.47747e-23)
(20.6749 -2.53165 -2.96504e-20)
(21.773 -2.66486 2.7167e-20)
(22.8107 -2.79037 0)
(23.8066 -2.91034 -2.32233e-20)
(24.7753 -3.02648 -5.68998e-23)
(25.727 -3.13988 -2.8138e-23)
(26.6681 -3.25111 2.0476e-23)
(27.5987 -3.36012 1.54711e-20)
(28.5077 -3.46526 -3.8493e-22)
(29.3814 -3.56468 1.45894e-21)
(30.2156 -3.65713 0)
(31.025 -3.745 9.85646e-22)
(31.8777 -3.83058 -1.02697e-21)
(32.9957 -3.95538 0)
(1.10916 -0.14511 0)
(3.57231 -0.466847 -5.81623e-23)
(6.49904 -0.849231 2.60386e-24)
(9.562 -1.24908 4.68893e-24)
(12.167 -1.58918 -3.59283e-19)
(14.2238 -1.85724 5.69794e-19)
(15.9021 -2.07545 -2.35121e-19)
(17.3316 -2.26114 2.0152e-19)
(18.5964 -2.42466 2.08419e-23)
(19.7473 -2.57299 2.50451e-23)
(20.8176 -2.71041 -1.46327e-19)
(21.8309 -2.83979 5.35251e-22)
(22.8044 -2.96325 9.86037e-22)
(23.7503 -3.08251 -1.13968e-19)
(24.6781 -3.1985 1.05798e-19)
(25.594 -3.31206 -1.43905e-21)
(26.4996 -3.42319 2.57283e-21)
(27.3886 -3.5311 7.44186e-20)
(28.2412 -3.63314 -6.015e-20)
(29.0403 -3.72818 -3.51344e-21)
(29.8116 -3.8149 0)
(30.6298 -3.91455 -3.88583e-20)
(31.7785 -4.15366 4.96779e-20)
(1.11719 -0.145918 -1.50734e-24)
(3.59486 -0.468944 4.45689e-19)
(6.5339 -0.851625 -4.76668e-19)
(9.60316 -1.25113 4.29018e-19)
(12.2149 -1.5908 0)
(14.277 -1.8591 -6.07671e-24)
(15.9591 -2.07692 0)
(17.3915 -2.26219 0)
(18.6578 -2.4253 0)
(19.8104 -2.57304 0)
(20.8821 -2.70983 -1.39629e-19)
(21.8962 -2.83837 1.27825e-19)
(22.8697 -2.96082 0)
(23.8156 -3.07879 -1.07904e-19)
(24.7433 -3.19318 9.9351e-20)
(25.6592 -3.30484 -8.99227e-20)
(26.5652 -3.41333 -1.59577e-22)
(27.4546 -3.51767 7.28338e-20)
(28.3075 -3.61445 -6.4728e-20)
(29.1063 -3.70045 -2.51446e-23)
(29.87 -3.77665 4.56882e-20)
(30.6899 -3.85577 5.29521e-21)
(31.8292 -3.94614 -8.8295e-21)
(1.12737 -0.146522 5.06316e-19)
(3.6216 -0.471004 4.92195e-24)
(6.57392 -0.854508 -4.56065e-19)
(9.65001 -1.25455 2.00049e-22)
(12.2667 -1.59386 0)
(14.3345 -1.8617 -2.59672e-19)
(16.0205 -2.07994 -1.69038e-23)
(17.4547 -2.26501 1.83926e-19)
(18.7224 -2.42794 1.62755e-19)
(19.8757 -2.57559 -1.46757e-19)
(20.948 -2.71225 5.10721e-22)
(21.9623 -2.84079 4.92023e-22)
(22.9359 -2.96331 0)
(23.8815 -3.0815 -3.76214e-23)
(24.8092 -3.19636 1.45614e-21)
(25.7252 -3.30871 8.79086e-20)
(26.6314 -3.41826 -7.97107e-20)
(27.5214 -3.52424 0)
(28.3749 -3.62347 1.65178e-22)
(29.1759 -3.7135 -3.08945e-21)
(29.946 -3.79679 0)
(30.7755 -3.88485 0)
(31.9197 -4.0102 0)
(1.12787 -0.145789 0)
(3.63185 -0.470356 -4.06244e-19)
(6.59785 -0.855188 4.3395e-19)
(9.68721 -1.25465 3.89683e-19)
(12.3101 -1.59442 -3.10896e-19)
(14.3835 -1.86211 -1.23671e-22)
(16.0742 -2.07997 0)
(17.5115 -2.26485 1.75449e-19)
(18.7808 -2.42749 -1.5501e-19)
(19.9353 -2.57479 1.39879e-19)
(21.0084 -2.71119 -1.28284e-19)
(22.0231 -2.83923 1.17122e-19)
(22.9969 -2.96141 -1.08343e-19)
(23.9429 -3.07901 -3.87853e-23)
(24.8704 -3.19337 -1.45996e-21)
(25.7862 -3.305 8.12686e-20)
(26.6925 -3.41381 -7.14157e-20)
(27.5826 -3.51881 0)
(28.4363 -3.61686 3.58864e-21)
(29.237 -3.70516 -4.81151e-20)
(30.0066 -3.7866 8.42147e-20)
(30.8354 -3.87087 1.01488e-22)
(31.977 -3.98438 -3.38143e-20)
(1.134 -0.146939 2.28313e-19)
(3.65218 -0.471819 3.86663e-19)
(6.63324 -0.856807 -4.12583e-19)
(9.73264 -1.25682 9.28218e-23)
(12.3634 -1.59568 2.95707e-19)
(14.4405 -1.86336 -2.34975e-19)
(16.1324 -2.08081 1.94345e-19)
(17.5716 -2.26519 -1.67017e-19)
(18.8426 -2.42775 0)
(19.9983 -2.57483 0)
(21.0717 -2.71089 0)
(22.0865 -2.83883 1.12611e-19)
(23.0602 -2.96083 3.42027e-23)
(24.006 -3.0783 -1.9096e-19)
(24.9338 -3.19265 1.75191e-19)
(25.8502 -3.30432 -1.56155e-19)
(26.7573 -3.41328 6.58703e-20)
(27.6484 -3.5184 1.88009e-21)
(28.5028 -3.61668 0)
(29.3053 -3.70533 2.94788e-21)
(30.0779 -3.78779 0)
(30.9124 -3.8716 0)
(32.0569 -3.9934 -2.44578e-20)
(1.14333 -0.147281 -4.34823e-19)
(3.6727 -0.473183 3.66999e-19)
(6.66334 -0.857906 3.91648e-19)
(9.76843 -1.25762 -3.52159e-19)
(12.4052 -1.59687 -2.80919e-19)
(14.4876 -1.86433 2.23415e-19)
(16.1822 -2.08169 0)
(17.6238 -2.26612 0)
(18.8967 -2.42858 0)
(20.0529 -2.57559 1.27079e-19)
(21.1271 -2.71154 -1.15709e-19)
(22.1426 -2.83951 -4.0744e-22)
(23.1163 -2.96149 9.85816e-20)
(24.0623 -3.0791 -1.81287e-19)
(24.9905 -3.19356 8.27798e-20)
(25.9075 -3.30546 -7.50084e-20)
(26.8156 -3.4148 6.90882e-20)
(27.7079 -3.52033 -6.06386e-20)
(28.5634 -3.61898 -1.61377e-23)
(29.3677 -3.70815 4.36723e-20)
(30.1428 -3.79051 0)
(30.9813 -3.87258 2.95046e-20)
(32.1372 -3.99652 -8.07005e-21)
(1.14807 -0.147592 -1.2946e-23)
(3.68766 -0.473925 3.49225e-19)
(6.685 -0.858867 -7.44848e-19)
(9.79925 -1.25867 6.70162e-19)
(12.4436 -1.59813 -5.3472e-19)
(14.5281 -1.86529 2.12659e-19)
(16.226 -2.08245 -1.67364e-22)
(17.6697 -2.26702 -1.51503e-19)
(18.944 -2.4293 -1.90608e-23)
(20.1011 -2.57631 -2.30872e-23)
(21.176 -2.71227 1.10391e-19)
(22.1922 -2.84026 4.08813e-22)
(23.1666 -2.96237 -9.41458e-20)
(24.1131 -3.08011 -4.39147e-23)
(25.0416 -3.1949 -1.15006e-22)
(25.9592 -3.30717 -5.88388e-23)
(26.8678 -3.41722 -6.7707e-23)
(27.7604 -3.52377 5.61244e-20)
(28.6164 -3.62387 4.86045e-20)
(29.4207 -3.71558 -8.37048e-20)
(30.1954 -3.80193 3.6485e-20)
(31.0322 -3.89216 4.14929e-21)
(32.1887 -4.03214 7.11492e-21)
(1.15551 -0.148104 -2.3315e-23)
(3.7067 -0.475202 0)
(6.70882 -0.8594 -3.52263e-19)
(9.83041 -1.25858 6.33711e-19)
(12.4781 -1.59777 -5.06011e-19)
(14.5657 -1.86445 2.01389e-19)
(16.267 -2.08152 1.67528e-22)
(17.7134 -2.26573 -1.43681e-19)
(18.9895 -2.42777 -1.92103e-23)
(20.148 -2.57449 1.14998e-19)
(21.2234 -2.71012 0)
(22.24 -2.83779 -3.6817e-22)
(23.2149 -2.95962 0)
(24.1621 -3.07706 6.2488e-22)
(25.0913 -3.19149 -1.20742e-21)
(26.0098 -3.30345 0)
(26.9193 -3.41294 -1.84665e-21)
(27.8127 -3.51874 0)
(28.6693 -3.61784 0)
(29.4739 -3.7081 0)
(30.2489 -3.79199 -3.88194e-20)
(31.0838 -3.87767 2.7081e-20)
(32.24 -4.00836 2.06745e-20)
(1.16279 -0.148422 2.33629e-23)
(3.72575 -0.47588 0)
(6.73358 -0.86007 0)
(9.86233 -1.25891 -7.5231e-23)
(12.5155 -1.59777 0)
(14.6062 -1.86416 0)
(16.31 -2.08076 0)
(17.7579 -2.26486 0)
(19.0353 -2.42666 1.20581e-19)
(20.1949 -2.57316 -1.09006e-19)
(21.2714 -2.70859 3.78524e-22)
(22.2884 -2.83611 7.1784e-22)
(23.2639 -2.95764 0)
(24.2115 -3.07509 -6.26918e-22)
(25.1418 -3.18936 1.08235e-21)
(26.0614 -3.30137 0)
(26.9722 -3.4109 -5.40525e-20)
(27.8669 -3.5167 5.05313e-20)
(28.7242 -3.61589 -2.65224e-21)
(29.5302 -3.70627 -2.28289e-21)
(30.3078 -3.79006 3.69993e-20)
(31.1483 -3.87598 -2.53539e-20)
(32.3066 -4.00398 0)
(1.16688 -0.148499 3.50821e-19)
(3.73817 -0.476045 -5.8938e-19)
(6.75476 -0.860235 6.27667e-19)
(9.89087 -1.25893 -2.82407e-19)
(12.551 -1.59748 -2.25583e-19)
(14.6444 -1.86345 3.59435e-19)
(16.3505 -2.07979 -1.26621e-22)
(17.8004 -2.26349 1.73403e-23)
(19.0787 -2.42496 1.96793e-23)
(20.2388 -2.57118 2.36306e-23)
(21.3157 -2.7064 -9.46572e-20)
(22.3332 -2.83361 8.6567e-20)
(23.3095 -2.95505 3.81577e-23)
(24.2581 -3.07244 -7.32179e-20)
(25.1895 -3.18663 -6.32682e-23)
(26.1107 -3.29862 6.10819e-20)
(27.0229 -3.40822 -5.6215e-20)
(27.9188 -3.51411 4.78144e-20)
(28.7765 -3.61339 -3.85586e-20)
(29.5838 -3.70416 -3.32706e-20)
(30.363 -3.78846 -9.90595e-23)
(31.2033 -3.87713 -1.08603e-22)
(32.3667 -4.0092 2.46454e-20)
(1.16757 -0.148042 0)
(3.74334 -0.474828 2.0843e-24)
(6.77166 -0.859728 2.95396e-19)
(9.9148 -1.25846 -2.6598e-19)
(12.5809 -1.59623 0)
(14.6789 -1.86243 1.6928e-19)
(16.3867 -2.07841 -1.40268e-19)
(17.838 -2.26169 0)
(19.1178 -2.42304 1.07413e-19)
(20.2793 -2.56908 -1.94292e-19)
(21.3568 -2.70413 8.89622e-20)
(22.3752 -2.83127 -8.20069e-20)
(23.3527 -2.95273 7.56585e-20)
(24.3024 -3.07003 -5.61245e-22)
(25.2353 -3.18436 -6.13205e-23)
(26.1582 -3.29641 -5.7574e-20)
(27.0723 -3.40614 5.12963e-20)
(27.9695 -3.51212 -4.49493e-20)
(28.8285 -3.61126 3.87493e-20)
(29.6381 -3.70191 0)
(30.4199 -3.78527 0)
(31.2636 -3.87293 0)
(32.4301 -3.99762 0)
(1.16733 -0.147968 1.54291e-19)
(3.74656 -0.474381 2.03948e-24)
(6.78849 -0.859651 3.28282e-23)
(9.93827 -1.259 0)
(12.6061 -1.59605 4.71965e-23)
(14.7096 -1.86197 8.02183e-23)
(16.4185 -2.07815 0)
(17.8706 -2.26108 0)
(19.1518 -2.42236 0)
(20.3145 -2.56839 0)
(21.3935 -2.70351 0)
(22.4133 -2.83066 -7.72949e-20)
(23.3917 -2.9522 -3.26269e-23)
(24.3429 -3.06961 4.59162e-22)
(25.2774 -3.1842 5.9034e-20)
(26.2019 -3.29657 0)
(27.1174 -3.40668 -1.46351e-21)
(28.0157 -3.51327 -4.23724e-20)
(28.8762 -3.61323 3.65328e-20)
(29.6879 -3.70529 -3.14833e-20)
(30.4707 -3.79004 -3.97986e-23)
(31.3126 -3.88167 2.93528e-21)
(32.4901 -4.0139 2.68779e-20)
(1.17348 -0.148454 1.44777e-19)
(3.76191 -0.475696 8.59729e-24)
(6.80665 -0.859621 -3.12565e-23)
(9.96125 -1.2574 -2.33725e-19)
(12.6298 -1.59486 1.86982e-19)
(14.7352 -1.86005 -1.49221e-19)
(16.4478 -2.07569 1.23719e-19)
(17.9016 -2.25877 1.66456e-23)
(19.1837 -2.41972 -9.48585e-20)
(20.3474 -2.56545 0)
(21.4277 -2.70047 7.90336e-20)
(22.4487 -2.82763 -1.44932e-19)
(23.4285 -2.94902 1.34067e-19)
(24.3813 -3.06658 -6.17233e-20)
(25.3173 -3.18109 5.64116e-20)
(26.2432 -3.29361 -5.09496e-20)
(27.1601 -3.40377 2.83715e-21)
(28.0597 -3.51043 0)
(28.9213 -3.61063 2.07229e-21)
(29.7339 -3.70328 -3.139e-20)
(30.5173 -3.78794 -9.47704e-23)
(31.3572 -3.88094 1.98887e-20)
(32.5335 -4.00739 1.52081e-20)
(1.17417 -0.147525 7.9306e-24)
(3.76588 -0.473532 2.87299e-23)
(6.81585 -0.858342 2.85248e-23)
(9.97731 -1.25654 2.17786e-19)
(12.6524 -1.59263 -1.74252e-19)
(14.7594 -1.85766 1.39161e-19)
(16.4749 -2.07317 1.30789e-22)
(17.9312 -2.2559 -9.96553e-20)
(19.2143 -2.41667 0)
(20.379 -2.56231 8.02198e-20)
(21.4611 -2.69705 3.78548e-24)
(22.4836 -2.8242 -5.0169e-22)
(23.4652 -2.94544 3.35888e-23)
(24.4196 -3.06295 -4.28602e-22)
(25.3574 -3.17734 -5.26527e-20)
(26.285 -3.28968 -4.83478e-20)
(27.2035 -3.39971 8.34466e-20)
(28.1048 -3.50614 -3.59696e-20)
(28.9677 -3.60613 -4.00876e-21)
(29.7823 -3.69841 1.78421e-21)
(30.5676 -3.78146 0)
(31.4048 -3.87527 0)
(32.5863 -4.00463 4.56625e-21)
(1.17453 -0.147649 -2.26253e-23)
(3.76992 -0.473679 2.11275e-19)
(6.82943 -0.857399 -2.25382e-19)
(9.99334 -1.25414 0)
(12.6703 -1.59028 7.63526e-23)
(14.7797 -1.85513 1.29419e-19)
(16.4965 -2.07005 -1.07576e-19)
(17.9546 -2.25257 0)
(19.2406 -2.41328 0)
(20.4074 -2.55887 7.48538e-20)
(21.4909 -2.6936 -1.3756e-19)
(22.5153 -2.82058 6.3595e-20)
(23.4989 -2.94199 0)
(24.4551 -3.05947 5.38898e-20)
(25.3947 -3.17399 5.43462e-23)
(26.3243 -3.2864 -8.82496e-20)
(27.2446 -3.39652 3.95924e-20)
(28.1466 -3.50311 -1.12277e-21)
(29.0106 -3.60334 3.74483e-21)
(29.8279 -3.69557 0)
(30.6161 -3.7788 0)
(31.4546 -3.87553 1.96626e-20)
(32.6327 -3.9886 -6.71433e-21)
(1.17756 -0.147112 -1.16383e-19)
(3.77887 -0.472912 2.28825e-23)
(6.83491 -0.855341 0)
(9.999 -1.25083 -1.8819e-19)
(12.6824 -1.58662 -5.22279e-23)
(14.7958 -1.85073 -4.9539e-24)
(16.5135 -2.06535 9.99423e-20)
(17.9737 -2.24735 8.64246e-20)
(19.2628 -2.40794 -1.53713e-19)
(20.4329 -2.55338 6.96482e-20)
(21.5185 -2.68796 0)
(22.545 -2.8147 0)