/*--------------------------------*- C++ -*----------------------------------*\
  =========                 |
  \\      /  F ield         | OpenFOAM: The Open Source CFD Toolbox
   \\    /   O peration     | Website:  https://openfoam.org
    \\  /    A nd           | Version:  10
     \\/     M anipulation  |
\*---------------------------------------------------------------------------*/
FoamFile
{
    format      ascii;
    class       volVectorField;
    location    "400";
    object      wallShearStress;
}
// * * * * * * * * * * * * * * * * * * * * * * * * * * * * * * * * * * * * * //

dimensions      [0 2 -2 0 0 0 0];

internalField   uniform (0 0 0);

boundaryField
{
    back
    {
        type            empty;
    }
    front
    {
        type            empty;
    }
    exit
    {
        type            calculated;
        value           uniform (0 0 0);
    }
    bottom
    {
        type            calculated;
        value           uniform (0 0 0);
    }
    inlet
    {
        type            calculated;
        value           uniform (0 0 0);
    }
    top
    {
        type            calculated;
        value           uniform (0 0 0);
    }
    aerofoil
    {
        type            calculated;
        value           nonuniform List<vector> 
817
(
(-1.54393 0.207213 -4.1042e-23)
(-3.29164 0.117161 -3.96579e-19)
(-3.28492 0.113564 7.95469e-19)
(-1.30397 0.182271 -1.29245e-22)
(-0.0728633 -0.0197967 0)
(-1.27694 0.176801 1.24622e-22)
(-1.26971 0.176429 4.63589e-24)
(-1.47961 0.201289 -1.89739e-22)
(-1.45286 0.198085 1.97762e-22)
(-1.42557 0.194992 -2.06046e-22)
(-1.39401 0.191344 2.14739e-22)
(-1.35727 0.186667 -1.09607e-22)
(-1.32215 0.182611 -6.1989e-40)
(-1.50877 0.204738 7.45288e-19)
(-1.52739 0.160599 9.18355e-41)
(-1.52873 0.206639 -8.92018e-23)
(-1.73133 0.227279 8.96928e-19)
(-1.57083 0.213255 -6.56964e-19)
(-1.5972 0.21395 7.53264e-23)
(-1.61515 0.21593 -7.53299e-23)
(-1.63726 0.21828 6.92059e-23)
(-1.66026 0.220092 -5.56125e-19)
(-1.6713 0.222694 -1.07162e-18)
(-1.67671 0.221678 5.13571e-19)
(-1.68899 0.222362 4.89276e-19)
(-1.71249 0.224778 4.66927e-19)
(-1.85318 0.228445 8.96971e-20)
(-1.85982 0.228287 -5.87747e-39)
(-1.73706 0.227289 0)
(-1.74406 0.227929 5.18384e-24)
(-1.7542 0.227911 -7.87826e-19)
(-1.76185 0.227452 8.39303e-36)
(-1.77293 0.229945 -3.56966e-19)
(-1.78288 0.229609 6.78049e-19)
(-1.7905 0.230184 2.01905e-23)
(-1.79626 0.230258 3.62433e-23)
(-1.80317 0.230071 -3.62294e-23)
(-1.80952 0.230218 -5.44023e-19)
(-1.81617 0.230135 0)
(-1.82161 0.230947 -2.40773e-19)
(-1.82557 0.231097 -2.2524e-19)
(-1.83097 0.229784 -1.23661e-23)
(-1.8363 0.230975 3.53732e-23)
(-1.83524 0.229145 1.81377e-19)
(-1.83649 0.229487 2.35099e-38)
(-1.84296 0.229131 -1.49273e-19)
(-1.84917 0.228974 1.34698e-19)
(-1.84856 0.228889 1.20889e-19)
(-1.84706 0.227068 -1.46937e-39)
(-1.90027 0.204986 -2.47213e-23)
(-1.90447 0.20508 -4.09664e-19)
(-1.90867 0.204824 4.18699e-19)
(-1.91199 0.204214 2.58314e-23)
(-1.91498 0.20388 -4.37158e-19)
(-1.86374 0.228159 -9.08069e-37)
(-1.86649 0.227714 4.84134e-20)
(-1.86949 0.227617 -3.54644e-20)
(-1.87202 0.22731 -2.27639e-20)
(-1.87338 0.226462 -1.11888e-20)
(-1.87326 0.226378 1.17008e-21)
(-1.87444 0.225124 0)
(-1.87283 0.225456 -3.72941e-24)
(-1.87237 0.223288 3.72676e-24)
(-1.8727 0.22349 -4.88132e-20)
(-1.8731 0.221814 -6.0222e-20)
(-1.87221 0.222302 -2.93874e-39)
(-1.87063 0.220645 5.42019e-24)
(-1.86997 0.220507 1.89434e-19)
(-1.87577 0.2205 6.28048e-25)
(-1.87999 0.220795 -1.406e-23)
(-1.87128 0.218846 7.2774e-24)
(-1.86773 0.217605 -1.71221e-23)
(-1.86863 0.217011 1.45048e-19)
(-1.86414 0.215969 -8.82833e-24)
(-1.86235 0.214666 2.62064e-23)
(-1.86051 0.21439 1.8001e-19)
(-1.8633 0.214811 1.92449e-19)
(-1.86889 0.213316 -7.31084e-36)
(-1.87071 0.213667 2.13923e-19)
(-1.87188 0.212826 -4.48002e-19)
(-1.87215 0.211932 -2.34549e-19)
(-1.87268 0.212167 2.44898e-19)
(-1.87342 0.211311 0)
(-1.87705 0.211105 1.65382e-23)
(-1.88007 0.211542 -1.65318e-23)
(-1.88285 0.210447 -2.85011e-19)
(-1.88341 0.209878 -2.94178e-19)
(-1.88314 0.209744 -1.93917e-23)
(-1.8832 0.208235 -1.22819e-24)
(-1.88706 0.208408 -3.2302e-19)
(-1.88975 0.20777 -3.32395e-19)
(-1.88956 0.207141 3.41746e-19)
(-1.89343 0.207179 -3.53357e-19)
(-1.90153 0.207758 -4.86655e-36)
(-1.89767 0.206236 -4.96016e-35)
(-1.89245 0.205488 0)
(-1.89498 0.204526 -7.17465e-43)
(-2.27455 0.169597 5.7705e-19)
(-2.27875 0.168057 -5.81712e-19)
(-2.2889 0.169028 -1.0761e-22)
(-2.30037 0.168092 3.5649e-23)
(-2.31269 0.168222 -2.82777e-25)
(-2.32407 0.167795 6.00533e-19)
(-2.33517 0.16762 3.67668e-23)
(-2.34732 0.166856 0)
(-2.35745 0.166342 6.1191e-19)
(-2.36393 0.165485 7.50133e-23)
(-1.91903 0.204154 -4.46125e-19)
(-1.9227 0.203171 9.09007e-19)
(-1.92394 0.203134 -9.24527e-19)
(-1.92493 0.20275 -4.70409e-19)
(-1.9252 0.201797 -9.56253e-19)
(-1.9272 0.201909 -4.86784e-19)
(-1.93152 0.201149 -3.67342e-39)
(-1.93665 0.201069 -5.04549e-19)
(-1.94166 0.201232 -1.02467e-18)
(-1.94275 0.200548 6.39176e-23)
(-1.9441 0.19976 -6.38782e-23)
(-1.94981 0.199624 5.36246e-19)
(-1.95181 0.199469 -2.35099e-38)
(-1.94895 0.198854 3.39338e-23)
(-1.94876 0.197624 -3.3922e-23)
(-1.95172 0.197084 3.5077e-23)
(-1.95967 0.197694 -3.50917e-23)
(-1.96615 0.197212 6.25199e-39)
(-1.97049 0.1971 0)
(-1.97352 0.197305 -1.20503e-18)
(-1.97848 0.196943 1.21925e-18)
(-1.98103 0.196312 1.23336e-18)
(-1.98141 0.195799 -6.24393e-19)
(-1.98255 0.195557 3.83096e-23)
(-1.97627 0.193851 -8.60958e-40)
(-1.97801 0.193379 2.00523e-23)
(-1.98748 0.193901 -6.07413e-23)
(-1.98992 0.193055 -1.3415e-18)
(-1.99184 0.192304 4.19574e-23)
(-1.99895 0.192787 1.38464e-18)
(-2.00036 0.191966 7.0191e-19)
(-2.0083 0.192068 -7.12619e-19)
(-2.01519 0.192205 -4.42772e-23)
(-2.0213 0.191542 6.67332e-23)
(-2.02735 0.192003 -2.24323e-23)
(-2.02786 0.191209 7.17465e-42)
(-2.02804 0.190437 4.62239e-23)
(-2.03144 0.189881 7.61482e-19)
(-2.03732 0.189824 -4.78123e-25)
(-2.04002 0.189215 -4.61924e-25)
(-2.04344 0.188902 -7.84182e-19)
(-2.04481 0.188246 1.58398e-18)
(-2.05098 0.187898 -4.70198e-38)
(-2.055 0.188178 8.60128e-39)
(-2.05269 0.186355 0)
(-2.04996 0.185851 8.22457e-19)
(-2.05372 0.184989 8.3203e-19)
(-2.06003 0.185102 8.4096e-19)
(-2.06519 0.18487 -4.70198e-38)
(-2.06826 0.184226 -8.57179e-19)
(-2.06898 0.184013 -8.64652e-19)
(-2.07178 0.183171 5.30094e-23)
(-2.07635 0.182712 -8.81448e-19)
(-2.07564 0.181746 -8.88995e-19)
(-2.07114 0.180595 8.97836e-19)
(-2.07688 0.179855 -9.08721e-19)
(-2.08688 0.180239 9.18975e-19)
(-2.09146 0.180125 -9.2818e-19)
(-2.09585 0.179671 9.36598e-19)
(-2.09734 0.179198 -5.49438e-23)
(-2.10421 0.178754 8.92174e-23)
(-2.11426 0.178314 -1.9248e-18)
(-2.12049 0.177917 1.199e-34)
(-2.12324 0.177464 -5.99146e-23)
(-2.1242 0.176494 5.99183e-23)
(-2.13189 0.176258 -9.95337e-19)
(-2.14068 0.176435 -1.00345e-18)
(-2.14734 0.176105 1.01135e-18)
(-2.15111 0.175382 -2.03717e-18)
(-2.15282 0.174813 -1.02718e-18)
(-2.16161 0.173972 6.30426e-23)
(-2.17262 0.174374 -1.04818e-18)
(-2.18044 0.17408 1.05665e-18)
(-2.18278 0.173578 -2.12823e-18)
(-2.18823 0.17269 3.31496e-23)
(-2.20622 0.172953 2.12211e-24)
(-2.21157 0.172825 1.34573e-24)
(-2.21261 0.171673 2.35099e-38)
(-2.21829 0.171539 1.10416e-18)
(-2.22706 0.170771 -1.11535e-18)
(-2.24217 0.170806 -6.89562e-23)
(-2.25497 0.171078 -5.66973e-19)
(-2.26454 0.170779 5.70473e-19)
(-2.27208 0.169976 -5.7405e-19)
(-4.60696 -0.684759 -1.38259e-18)
(-4.62136 -0.707401 1.30323e-26)
(-4.64151 -0.724881 -2.30152e-18)
(-4.65483 -0.745274 -4.59524e-18)
(-4.66951 -0.766889 1.60243e-34)
(-4.68466 -0.788899 0)
(-4.69957 -0.811726 0)
(-4.71613 -0.835484 9.14194e-18)
(-4.73723 -0.861228 4.56202e-18)
(-4.75378 -0.887033 -4.54984e-18)
(-4.77436 -0.914382 4.53397e-18)
(-4.78822 -0.941439 -4.51974e-18)
(-4.8056 -0.970206 4.50461e-18)
(-4.82154 -1.00014 4.48504e-18)
(-4.84109 -1.03175 2.73239e-22)
(-4.85669 -1.0645 2.70389e-22)
(-4.87047 -1.09711 -5.38952e-22)
(-4.88314 -1.13181 1.60539e-24)
(-4.89636 -1.16782 1.80035e-24)
(-4.91181 -1.20613 4.32793e-18)
(-2.37246 0.165322 -6.20846e-19)
(-2.38174 0.164659 6.24724e-19)
(-2.39001 0.164245 -3.90802e-23)
(-2.39987 0.163503 7.72862e-23)
(-2.41162 0.163472 -1.16837e-22)
(-2.42413 0.162838 3.87549e-23)
(-2.43588 0.162458 -3.96885e-23)
(-2.44882 0.161679 -6.48266e-19)
(-2.46029 0.161392 -2.19311e-25)
(-2.47225 0.160647 8.00983e-23)
(-2.48501 0.1605 -4.01855e-23)
(-2.49558 0.160154 -4.05645e-23)
(-2.50684 0.159292 -2.28456e-25)
(-2.52293 0.158663 -6.70267e-19)
(-2.54115 0.158934 4.10057e-23)
(-2.55497 0.158006 1.14794e-41)
(-2.57025 0.157205 -4.15557e-23)
(-2.58667 0.156891 6.82766e-19)
(-2.6079 0.156362 6.8688e-19)
(-2.62729 0.156517 -6.90025e-19)
(-2.64756 0.156055 6.93367e-19)
(-2.66788 0.155951 -8.51805e-23)
(-2.68825 0.155469 8.51265e-23)
(-2.71088 0.155108 -7.01347e-19)
(-2.73586 0.154907 -7.03709e-19)
(-2.75604 0.154368 8.59922e-23)
(-2.77835 0.154029 -4.32391e-23)
(-2.80174 0.153506 7.09147e-19)
(-2.82366 0.152929 -7.10577e-19)
(-2.84504 0.152763 1.17549e-38)
(-2.86931 0.151835 -4.19073e-23)
(-2.89747 0.151961 4.36837e-23)
(-2.91801 0.15092 -7.18308e-19)
(-2.94767 0.150866 -6.13296e-19)
(-2.97055 0.1499 7.22429e-19)
(-2.992 0.148918 -7.25496e-19)
(-3.01705 0.148235 -7.27861e-19)
(-3.03909 0.146918 4.44576e-23)
(-3.06352 0.146406 4.22372e-39)
(-3.08392 0.145209 1.28764e-34)
(-3.10205 0.144002 7.36172e-19)
(-3.11975 0.142796 -1.8452e-25)
(-3.13583 0.141247 4.52029e-23)
(-3.15347 0.140025 7.46074e-19)
(-3.17012 0.138057 -7.49593e-19)
(-3.1885 0.137074 7.96985e-35)
(-3.20237 0.134772 -1.51192e-18)
(-3.21414 0.133272 -4.64873e-23)
(-3.22299 0.131332 9.3233e-23)
(-3.23607 0.129752 -9.38017e-23)
(-3.24516 0.127692 4.7001e-23)
(-3.25281 0.125762 -4.75129e-23)
(-3.26172 0.123749 -2.61635e-25)
(-3.27034 0.120911 -3.92508e-19)
(-3.27921 0.119001 3.94509e-19)
(-1.93505 -0.227556 -1.34135e-23)
(-1.92882 -0.227525 -1.93747e-19)
(-1.92781 -0.227507 5.54955e-24)
(-3.28827 0.111662 4.00169e-19)
(-3.29695 0.109883 -4.02745e-19)
(-3.30865 0.107082 -4.44043e-35)
(-3.31702 0.10479 -8.14853e-19)
(-3.32489 0.102378 6.33665e-39)
(-3.33339 0.0997299 -8.2391e-19)
(-3.34585 0.0973166 4.14267e-19)
(-3.35475 0.0945007 2.93874e-39)
(-3.36202 0.0917848 -2.93874e-39)
(-3.36986 0.0890971 -4.19887e-19)
(-3.3768 0.0866672 -1.17843e-36)
(-3.38486 0.0839558 -5.18639e-23)
(-3.39515 0.0810809 5.18664e-23)
(-3.40201 0.0784217 5.87747e-39)
(-3.40801 0.0752535 4.30266e-19)
(-3.42387 0.0727425 -6.4182e-36)
(-3.43904 0.0695952 -4.35022e-19)
(-3.45076 0.0666443 -5.34512e-23)
(-3.46091 0.0633346 -2.19221e-19)
(-3.46985 0.060529 6.71354e-36)
(-3.47728 0.057464 -4.42193e-19)
(-3.48459 0.0543817 0)
(-3.49312 0.0509252 2.22996e-19)
(-3.50534 0.0475651 5.45645e-23)
(-3.51358 0.0442731 2.24878e-19)
(-3.51822 0.0407856 7.34684e-40)
(-3.5294 0.0372101 0)
(-3.54124 0.0336614 7.34684e-40)
(-3.54973 0.0301994 1.14496e-19)
(-3.55808 0.02658 1.14949e-19)
(-3.56652 0.0230678 -2.86986e-42)
(-3.57662 0.0191974 1.15937e-19)
(-3.58476 0.0152185 5.81942e-20)
(-3.59313 0.0116202 -4.22443e-39)
(-3.6022 0.0074372 -5.87041e-20)
(-3.61063 0.00339235 0)
(-3.61804 -0.000652114 3.69803e-21)
(-3.62543 -0.00486488 -1.43493e-42)
(-3.63467 -0.00879756 0)
(-3.64281 -0.0131982 -1.19816e-19)
(-3.65121 -0.0173503 7.85928e-37)
(-3.65905 -0.0216406 -4.28945e-36)
(-3.66629 -0.0261188 -1.21211e-19)
(-3.67521 -0.0307352 -1.21798e-19)
(-3.68434 -0.0356277 -4.89e-19)
(-3.6922 -0.0401813 2.15462e-25)
(-3.69906 -0.0445936 6.02508e-23)
(-3.70732 -0.0494365 -6.0246e-23)
(-3.7163 -0.0545152 -1.83025e-39)
(-3.72471 -0.0594818 -1.23108e-35)
(-3.73407 -0.0645316 2.93874e-39)
(-3.74194 -0.0696431 5.0251e-19)
(-3.75181 -0.0748637 -6.14559e-23)
(-3.75965 -0.0803585 3.58732e-43)
(-3.76901 -0.0856555 -1.17549e-38)
(-3.77759 -0.0909998 -1.02021e-18)
(-3.78834 -0.0966027 5.11811e-19)
(-3.79748 -0.102614 -1.0281e-18)
(-3.80763 -0.108252 2.35099e-38)
(-3.81874 -0.113965 1.03552e-18)
(-3.82883 -0.120173 0)
(-3.83795 -0.126535 -1.04324e-18)
(-3.84835 -0.132323 2.26722e-25)
(-3.85786 -0.138668 -6.40183e-23)
(-3.86828 -0.145061 -5.26963e-19)
(-3.87964 -0.151536 -1.17549e-38)
(-3.89303 -0.158167 -7.44558e-35)
(-3.9044 -0.165115 -2.12711e-18)
(-3.91572 -0.17241 -1.06766e-18)
(-3.92827 -0.179202 -6.53145e-23)
(-3.93893 -0.186542 1.07382e-18)
(-3.95041 -0.193712 1.07759e-18)
(-3.96414 -0.201533 -1.08123e-18)
(-3.97678 -0.208997 -6.61222e-23)
(-3.98961 -0.216811 -2.17393e-18)
(-4.00488 -0.224876 -2.17959e-18)
(-4.01865 -0.23341 0)
(-4.03301 -0.241368 1.0955e-18)
(-4.04882 -0.250377 -1.33802e-22)
(-4.06258 -0.259094 8.13533e-35)
(-4.07665 -0.267915 1.35033e-22)
(-4.09268 -0.27722 -1.10838e-18)
(-4.10789 -0.286319 -6.77117e-23)
(-4.12383 -0.29633 2.22699e-18)
(-4.14252 -0.306073 -2.23342e-18)
(-4.15787 -0.316092 -1.36468e-22)
(-4.17459 -0.326455 2.24032e-18)
(-4.18962 -0.336639 -2.2439e-18)
(-4.20707 -0.347588 3.67342e-40)
(-4.22387 -0.358532 -2.25372e-18)
(-4.24115 -0.369752 2.89161e-25)
(-4.25969 -0.38161 4.52531e-18)
(-4.27418 -0.393245 1.38293e-22)
(-4.29395 -0.405461 6.9426e-23)
(-4.31218 -0.417834 2.27645e-18)
(-4.32943 -0.430682 -1.38911e-22)
(-4.34723 -0.443845 -2.28068e-18)
(-4.36541 -0.456754 2.28204e-18)
(-4.38184 -0.470856 1.39619e-22)
(-4.40108 -0.484552 -1.39687e-22)
(-4.41918 -0.499135 -2.29254e-18)
(-4.43573 -0.514082 4.59025e-18)
(-4.45402 -0.529177 1.40219e-22)
(-4.47402 -0.544755 2.30052e-18)
(-4.48888 -0.560598 -2.2989e-18)
(-4.50498 -0.576518 -2.29846e-18)
(-4.52447 -0.593582 4.33674e-24)
(-4.54231 -0.612862 -3.77903e-23)
(-4.55562 -0.628362 2.30234e-18)
(-4.57536 -0.646639 0)
(-4.58904 -0.66512 0)
(-2.07784 -0.214448 -6.56635e-23)
(-2.07281 -0.214849 5.22279e-19)
(-2.07198 -0.215048 0)
(-2.07459 -0.21602 -2.35099e-38)
(-2.0764 -0.217434 4.95184e-19)
(-2.07422 -0.217196 9.7471e-19)
(-2.07163 -0.218042 4.78413e-19)
(-2.06758 -0.218043 9.38832e-19)
(-2.06486 -0.218109 -2.83394e-23)
(-2.06361 -0.219478 4.50963e-19)
(-2.06134 -0.219468 4.42426e-19)
(-2.05888 -0.219999 2.62098e-23)
(-2.05722 -0.220732 -4.25212e-19)
(-2.05365 -0.22114 2.51822e-23)
(-2.0486 -0.22101 -2.51812e-23)
(-2.04397 -0.220704 7.17465e-43)
(-2.04223 -0.221824 0)
(-2.04211 -0.222011 2.48008e-35)
(-2.04127 -0.223233 1.74678e-35)
(-2.03585 -0.222854 3.60314e-19)
(-2.02825 -0.222426 1.70949e-23)
(-2.02124 -0.222112 3.36738e-19)
(-2.02509 -0.223777 3.25058e-19)
(-2.02712 -0.224232 -1.13158e-24)
(-2.02294 -0.22531 -1.96295e-23)
(-2.01412 -0.224374 2.96457e-19)
(-2.01255 -0.22491 5.70167e-19)
(-2.01327 -0.226429 -2.76597e-19)
(-2.0102 -0.226048 1.66122e-23)
(-2.00591 -0.226234 0)
(-2.00236 -0.22679 -4.96898e-19)
(-1.99902 -0.226292 2.38659e-19)
(-1.99535 -0.226778 4.58031e-19)
(-1.99161 -0.227386 -2.19884e-19)
(-1.98309 -0.226281 3.53824e-36)
(-1.9738 -0.227428 -1.99504e-19)
(-1.97274 -0.227246 -5.87747e-39)
(-1.97117 -0.227138 1.44449e-23)
(-1.96666 -0.227716 -1.1958e-23)
(-1.96244 -0.227781 -1.56375e-19)
(-4.92399 -1.24577 -4.29278e-18)
(-4.92981 -1.28638 2.22969e-23)
(-4.9371 -1.32783 -4.20462e-18)
(-4.9452 -1.37393 4.15651e-18)
(-4.95381 -1.42172 -3.58855e-34)
(-4.95528 -1.46982 -5.67887e-38)
(-4.9526 -1.52111 1.55788e-34)
(-4.94931 -1.57296 0)
(-4.94611 -1.63314 0)
(-4.93638 -1.69091 -1.47955e-17)
(-4.92116 -1.75262 7.17901e-18)
(-4.90185 -1.81855 0)
(-4.87601 -1.88786 6.65719e-18)
(-4.84056 -1.95838 1.26989e-17)
(-4.79302 -2.03449 -4.4161e-34)
(-4.72165 -2.10269 5.585e-18)
(-4.5864 -2.1526 5.12631e-18)
(-4.3614 -2.16855 2.48461e-23)
(-4.07996 -2.14891 -4.03074e-18)
(-3.88244 -2.17897 -3.33585e-18)
(-3.84547 -2.32504 2.48284e-18)
(-3.90405 -2.55788 -1.45497e-18)
(-3.99906 -2.8365 -5.09766e-23)
(-4.07286 -3.18615 -8.35071e-35)
(-4.11296 -3.59528 -2.99429e-18)
(-4.04069 -4.03605 -1.03504e-17)
(-3.8514 -4.44343 -7.75678e-18)
(-3.42909 -4.80171 -7.72728e-22)
(-2.71565 -4.83095 -2.92442e-22)
(-1.76683 -4.36489 1.81575e-17)
(-0.800031 -3.29961 -1.07764e-17)
(-0.0835157 -0.0575818 5.22478e-22)
(-0.0699036 0.0346379 -1.66821e-23)
(-0.73167 3.00966 2.20374e-17)
(-1.71549 4.23253 1.88752e-17)
(-2.7356 4.86569 3.0039e-17)
(-3.48758 4.88201 -8.00063e-22)
(-3.9206 4.52485 7.98222e-18)
(-4.10196 4.09754 1.06612e-17)
(-4.17362 3.64661 3.10197e-18)
(-4.11762 3.23085 -1.2866e-18)
(-4.03192 2.85994 -4.80435e-23)
(-3.93259 2.57135 1.40908e-18)
(-3.86844 2.33892 -2.44583e-18)
(-3.90526 2.19174 3.31056e-18)
(-4.10034 2.15965 0)
(-4.3829 2.17927 4.60554e-18)
(-4.60939 2.16342 -5.13099e-18)
(-4.73917 2.1105 -1.98879e-22)
(-4.80276 2.03864 2.76852e-34)
(-4.84093 1.95853 -1.27279e-17)
(-4.86202 1.88251 -3.98017e-22)
(-4.86997 1.80679 7.52316e-37)
(-4.87046 1.73463 -7.19501e-18)
(-4.86828 1.66762 1.48211e-17)
(-4.86049 1.60473 3.80539e-18)
(-4.84362 1.54006 -3.89482e-18)
(-4.82587 1.48188 2.39929e-22)
(-4.80987 1.42674 0)
(-4.79343 1.37594 4.09759e-18)
(-4.77233 1.32572 -4.15601e-18)
(-4.75402 1.27861 4.20311e-18)
(-4.73853 1.23655 -1.91108e-23)
(-4.72637 1.19581 4.29117e-18)
(-4.71031 1.15667 -4.32623e-18)
(-4.69377 1.11952 1.83476e-24)
(-4.68198 1.08521 1.68593e-24)
(-4.67135 1.05219 -5.39051e-22)
(-4.66018 1.02119 5.41966e-22)
(-4.64974 0.991202 1.30202e-24)
(-4.63416 0.961282 -2.92034e-22)
(-4.62169 0.933037 -2.37185e-34)
(-4.60858 0.906157 0)
(-4.60082 0.881211 -4.53399e-18)
(-4.58687 0.856006 4.5517e-18)
(-4.57478 0.831635 -4.56538e-18)
(-4.5596 0.807746 -9.14486e-18)
(-4.5476 0.785461 0)
(-4.53688 0.764031 -4.58365e-18)
(-4.52549 0.743237 -4.58864e-18)
(-4.51398 0.722752 2.80768e-22)
(-4.50228 0.703107 4.60442e-18)
(-4.48893 0.683643 1.95656e-22)
(-4.47534 0.664526 0)
(-4.46252 0.646766 5.26311e-44)
(-4.45357 0.630641 -2.05836e-39)
(-4.43791 0.613591 -1.77523e-23)
(-4.42744 0.595391 4.59933e-18)
(-4.41319 0.579022 -3.28782e-24)
(-4.39765 0.562712 2.2969e-18)
(-4.38581 0.547629 -2.7918e-38)
(-4.37417 0.532796 2.29536e-18)
(-4.36255 0.51816 4.58918e-18)
(-4.34736 0.503857 -4.58609e-18)
(-4.33375 0.489718 2.79148e-22)
(-4.32029 0.475433 -4.5725e-18)
(-4.30455 0.462628 1.39484e-22)
(-4.29226 0.449116 -2.27989e-18)
(-4.27854 0.436842 2.27858e-18)
(-4.26454 0.424202 -1.38744e-22)
(-4.25022 0.411807 1.38783e-22)
(-4.23513 0.399844 8.72168e-42)
(-4.22091 0.388384 1.38101e-22)
(-4.20844 0.377032 -4.51955e-18)
(-4.19279 0.365523 2.99239e-25)
(-4.17836 0.354672 2.25045e-18)
(-4.16418 0.344034 1.59397e-35)
(-4.14949 0.333398 -1.41218e-22)
(-4.13641 0.323464 -2.23591e-18)
(-4.12114 0.313249 -1.36199e-22)
(-4.10728 0.303753 2.22687e-18)
(-4.09134 0.293687 -1.11012e-18)
(-4.07694 0.284201 -6.75627e-23)
(-4.06228 0.275169 1.10587e-18)
(-4.04639 0.26592 1.34742e-22)
(-4.03221 0.257173 -4.95639e-35)
(-4.01795 0.248466 -1.33501e-22)
(-4.00247 0.23955 -1.09268e-18)
(-3.98929 0.231686 0)
(-3.97487 0.223195 2.17481e-18)
(-3.95817 0.215088 1.08439e-18)
(-3.94445 0.207285 -6.59514e-23)
(-3.93076 0.199809 1.07856e-18)
(-3.91509 0.191977 -2.35099e-38)
(-3.90041 0.184706 -8.53548e-35)
(-3.88721 0.177334 -6.51487e-23)
(-3.87247 0.170483 1.06529e-18)
(-3.85688 0.1631 1.0611e-18)
(-3.84228 0.156071 1.17549e-38)
(-3.82658 0.149457 0)
(-3.81347 0.142976 5.25774e-19)
(-3.80076 0.1366 -6.38915e-23)
(-3.78854 0.130248 2.17094e-25)
(-3.77442 0.124405 1.04149e-18)
(-3.76186 0.118042 1.17549e-38)
(-3.74733 0.111813 -5.16943e-19)
(-3.73243 0.10612 -5.15255e-19)
(-3.71951 0.10049 1.02668e-18)
(-3.70744 0.0945393 -5.11265e-19)
(-3.69336 0.0889623 5.09695e-19)
(-3.68106 0.0836451 2.93874e-39)
(-3.667 0.0783582 3.58732e-43)
(-3.65501 0.0729384 -6.14314e-23)
(-3.64121 0.0677417 -5.02227e-19)
(-3.62892 0.0627236 -8.81621e-39)
(-3.61599 0.0577423 2.49243e-19)
(-3.6047 0.0528987 -1.46937e-39)
(-3.59286 0.047915 -6.02685e-23)
(-3.58121 0.0431851 6.0274e-23)
(-3.56945 0.0387559 4.90929e-19)
(-3.55733 0.034316 2.4474e-19)
(-3.54427 0.0296551 1.21749e-19)
(-3.5308 0.0251805 5.93648e-23)
(-3.51821 0.0208255 1.20801e-19)
(-3.50571 0.0167072 3.30314e-36)
(-3.49475 0.0126841 5.98799e-20)
(-3.48425 0.00846775 -4.59177e-41)
(-3.47311 0.00467914 0)
(-3.46431 0.000643248 -3.69527e-21)
(-3.45494 -0.0032328 0)
(-3.44543 -0.00710412 5.86174e-20)
(-3.4358 -0.0110957 -4.04076e-39)
(-3.426 -0.0145068 -5.80867e-20)
(-3.41646 -0.0183032 -1.15674e-19)
(-3.40688 -0.0220262 0)
(-3.39808 -0.0253817 -1.1464e-19)
(-3.39048 -0.0288386 -1.14142e-19)
(-3.38235 -0.032158 -1.13635e-19)
(-3.37493 -0.0355792 3.67342e-40)
(-3.36613 -0.0390105 0)
(-3.35733 -0.0422632 -2.24348e-19)
(-3.34848 -0.0454068 5.43818e-23)
(-3.33939 -0.0486704 -2.22348e-19)
(-3.33033 -0.0519458 8.81621e-39)
(-3.32125 -0.0548653 4.40324e-19)
(-3.31457 -0.0577824 1.49582e-36)
(-3.30842 -0.0605061 5.31252e-23)
(-3.30299 -0.0637766 -5.31429e-23)
(-3.2963 -0.0666927 4.32556e-19)
(-3.28939 -0.0698517 4.30675e-19)
(-3.28141 -0.07243 -5.47193e-36)
(-3.27486 -0.075465 -4.26794e-19)
(-3.26812 -0.0780304 5.17512e-23)
(-3.26071 -0.0808779 -5.17483e-23)
(-3.25429 -0.083539 -3.58732e-43)
(-3.24531 -0.0858062 -2.48921e-35)
(-3.2357 -0.0883194 5.87747e-39)
(-3.22891 -0.0909581 -4.14244e-19)
(-3.22466 -0.0937225 -9.63318e-36)
(-3.21832 -0.0962116 4.10003e-19)
(-3.21291 -0.0987593 4.07969e-19)
(-3.2077 -0.101149 4.05941e-19)
(-3.20407 -0.103479 2.93874e-39)
(-3.19998 -0.106313 4.0206e-19)
(-3.19273 -0.108261 -4.00293e-19)
(-3.18721 -0.110441 -7.95966e-19)
(-3.1843 -0.11303 3.9617e-19)
(-3.1797 -0.115559 -3.94509e-19)
(-3.17576 -0.117367 3.92414e-19)
(-3.17195 -0.120156 -7.80599e-19)
(-3.16365 -0.122113 -4.75642e-23)
(-3.15592 -0.124058 4.70459e-23)
(-3.15109 -0.126335 -7.68795e-19)
(-3.14495 -0.128201 7.64385e-19)
(-3.14265 -0.130438 -4.65258e-23)
(-3.13766 -0.13217 1.51283e-18)
(-3.1333 -0.134867 -4.01196e-35)
(-3.12604 -0.136306 7.49479e-19)
(-3.11931 -0.138616 -7.4581e-19)
(-3.11261 -0.140297 4.51662e-23)
(-3.10606 -0.142179 -2.13773e-25)
(-3.09726 -0.143833 -7.34738e-19)
(-3.0884 -0.145429 -8.86793e-35)
(-3.08001 -0.147433 -3.42741e-36)
(-3.07123 -0.148559 4.41255e-23)
(-3.06536 -0.150702 7.22068e-19)
(-3.05463 -0.15193 7.19304e-19)
(-3.04214 -0.153384 -1.76258e-25)
(-3.03223 -0.155213 7.13201e-19)
(-3.01533 -0.155856 7.10799e-19)
(-2.99909 -0.157386 4.30218e-23)
(-2.98563 -0.157904 -4.51784e-23)
(-2.97371 -0.159726 6.99947e-19)
(-2.96056 -0.160307 6.96727e-19)
(-2.94754 -0.161515 -6.938e-19)
(-2.93313 -0.162638 -4.22768e-23)
(-2.91747 -0.163435 8.38599e-23)
(-2.90386 -0.164469 -3.35685e-25)
(-2.88546 -0.165133 6.82639e-19)
(-2.87052 -0.166083 8.28673e-23)
(-2.85448 -0.166884 -8.29189e-23)
(-2.83318 -0.167024 -6.74852e-19)
(-2.81556 -0.167715 4.26651e-25)
(-2.80137 -0.167978 -1.17549e-38)
(-2.78233 -0.168683 -6.64054e-19)
(-2.7695 -0.16934 -4.04098e-23)
(-2.75351 -0.170216 6.57384e-19)
(-2.74515 -0.17146 3.86277e-23)
(-2.73157 -0.171801 6.53832e-19)
(-2.71079 -0.172161 -1.9654e-25)
(-2.69418 -0.172837 -3.96081e-23)
(-2.68418 -0.173325 -3.92895e-23)
(-2.67355 -0.173814 7.83779e-23)
(-2.65826 -0.174338 6.39081e-19)
(-2.64501 -0.174772 6.35538e-19)
(-2.63305 -0.175613 -3.88797e-23)
(-2.61975 -0.176069 3.81238e-23)
(-2.60476 -0.176628 -1.14854e-22)
(-2.59064 -0.176688 7.60256e-23)
(-2.57828 -0.177315 -6.18501e-19)
(-2.56721 -0.177627 -6.15056e-19)
(-2.55605 -0.178244 6.11402e-19)
(-2.54561 -0.178323 7.39594e-23)
(-2.53696 -0.17911 -7.38806e-23)
(-2.52874 -0.17982 2.86986e-42)
(-2.52066 -0.180919 3.63624e-23)
(-2.51044 -0.181231 -1.92566e-25)
(-2.50071 -0.181857 -5.91541e-19)
(-2.4895 -0.181923 3.55501e-23)
(-2.47856 -0.182864 -1.0714e-22)
(-2.46715 -0.182073 5.80622e-19)
(-2.45702 -0.183245 -4.82586e-25)
(-2.44844 -0.183142 1.14492e-18)
(-2.43857 -0.183904 -5.68702e-19)
(-2.42876 -0.184252 5.64933e-19)
(-2.41572 -0.184096 -6.86983e-23)
(-2.40527 -0.184471 2.485e-35)
(-2.39306 -0.18511 -1.1025e-18)
(-2.38261 -0.184946 -4.70198e-38)
(-2.37495 -0.185798 1.08347e-18)
(-2.36545 -0.185594 -1.74037e-24)
(-2.35767 -0.18613 3.20807e-23)
(-2.34984 -0.186924 2.11308e-18)
(-2.34221 -0.187013 -1.04697e-18)
(-2.3316 -0.187154 1.03892e-18)
(-2.32093 -0.186836 6.23987e-23)
(-2.31868 -0.188274 2.03418e-18)
(-2.31595 -0.1888 -4.9337e-25)
(-2.30981 -0.189416 -3.03353e-23)
(-2.30137 -0.189668 9.93477e-19)
(-2.2947 -0.189808 9.83666e-19)
(-2.28993 -0.190308 5.93274e-23)
(-2.2855 -0.191045 -5.93239e-23)
(-2.28323 -0.191629 -6.39939e-35)
(-2.28199 -0.192516 1.90643e-18)
(-2.27625 -0.19333 8.47314e-23)
(-2.26996 -0.193872 -6.00494e-23)
(-2.26498 -0.194268 -9.32941e-19)
(-2.2596 -0.194656 9.25845e-19)
(-2.25544 -0.195005 -9.18559e-19)
(-2.24742 -0.194805 9.10544e-19)
(-2.241 -0.195384 5.6839e-23)
(-2.23168 -0.195338 8.95521e-19)
(-2.22063 -0.19519 8.85421e-19)
(-2.21472 -0.1956 5.32172e-23)
(-2.20996 -0.196367 8.67547e-19)
(-2.20836 -0.196476 8.59123e-19)
(-2.20703 -0.197347 4.70198e-38)
(-2.20489 -0.197993 -8.42418e-19)
(-2.20215 -0.198328 -8.34226e-19)
(-2.19892 -0.19934 -8.26664e-19)
(-2.19601 -0.199389 0)
(-2.19404 -0.20096 9.11727e-39)
(-2.18922 -0.200624 0)
(-2.18298 -0.201018 -1.59254e-18)
(-2.17989 -0.201578 7.88808e-19)
(-2.17762 -0.202037 -7.80721e-19)
(-2.17423 -0.202657 -4.7801e-25)
(-2.1673 -0.202678 -7.65442e-19)
(-2.16175 -0.203073 4.64758e-23)
(-2.15732 -0.203498 2.0089e-41)
(-2.15832 -0.204481 -2.24925e-23)
(-2.15543 -0.204408 6.69434e-23)
(-2.15196 -0.205336 -4.44286e-23)
(-2.14981 -0.205724 7.16454e-19)
(-2.14615 -0.206065 -7.08564e-19)
(-2.14224 -0.206674 -1.40258e-18)
(-2.13789 -0.20654 4.25254e-23)
(-2.13664 -0.207351 1.3694e-18)
(-2.13409 -0.20807 -6.21032e-23)
(-2.13258 -0.208458 2.05458e-23)
(-2.12929 -0.208768 -3.37352e-39)
(-2.12655 -0.209587 3.96835e-23)
(-2.12331 -0.20971 6.46383e-19)
(-2.12231 -0.210285 -1.27821e-18)
(-2.11867 -0.210908 -1.26264e-18)
(-2.11607 -0.211139 1.24746e-18)
(-2.11351 -0.2118 4.70198e-38)
(-2.10872 -0.211733 7.1273e-39)
(-2.10422 -0.212559 -3.62657e-23)
(-2.09941 -0.21233 3.62501e-23)
(-2.09536 -0.212655 -3.50651e-23)
(-2.09031 -0.213406 3.50777e-23)
(-2.09095 -0.213762 0)
(-2.09143 -0.214135 -5.51357e-19)
(-2.08665 -0.214295 6.56227e-23)
(-1.9569 -0.227879 -1.45366e-19)
(-1.95104 -0.2281 7.8137e-24)
(-1.94535 -0.228567 -7.34141e-25)
(-1.92672 -0.228877 0)
(-1.92301 -0.227762 6.26523e-20)
(-1.91778 -0.228907 5.12068e-20)
(-1.91428 -0.228316 4.12243e-24)
(-1.90825 -0.229737 -4.12503e-24)
(-1.902 -0.228369 0)
(-1.89853 -0.229363 -3.10903e-21)
(-1.89526 -0.229034 8.7609e-21)
(-1.89119 -0.229479 2.10013e-20)
(-1.88762 -0.229684 3.28036e-20)
(-1.88037 -0.229287 -4.54283e-20)
(-1.87368 -0.229381 -5.92004e-20)
(-1.86856 -0.229265 7.34684e-40)
(-1.86575 -0.229992 -8.62991e-20)
(-1.8585 -0.22861 -5.87747e-39)
(-1.85022 -0.229092 2.24208e-44)
(-1.84613 -0.228656 -3.8649e-24)
(-1.84072 -0.228918 1.41801e-19)
(-1.83659 -0.229512 1.22251e-36)
(-1.83217 -0.228772 -1.702e-19)
(-1.82529 -0.229631 3.33658e-23)
(-1.81637 -0.227959 -1.17137e-23)
(-1.8093 -0.229041 2.14466e-19)
(-1.80319 -0.228593 2.29933e-19)
(-1.79702 -0.227698 0)
(-1.79048 -0.227755 5.20962e-19)
(-1.78039 -0.22713 -3.47748e-23)
(-1.7694 -0.226803 3.47885e-23)
(-1.75655 -0.225838 1.95969e-23)
(-1.74371 -0.224599 -3.30943e-19)
(-1.73749 -0.225437 3.5036e-19)
(-1.7306 -0.223436 -2.09238e-36)
(-1.71865 -0.223317 7.72742e-19)
(-1.70202 -0.222509 -5.42877e-24)
(-1.68616 -0.220743 4.70198e-38)
(-1.67948 -0.220594 -9.01125e-19)
(-1.67172 -0.219529 -4.69825e-19)
(-1.65365 -0.217745 -4.90367e-19)
(-1.63652 -0.216384 -6.13189e-23)
(-1.62361 -0.21648 1.07582e-18)
(-1.61283 -0.213824 -6.97412e-23)
(-1.5995 -0.213316 6.96767e-23)
(-1.58552 -0.212088 -7.52633e-23)
(-1.56221 -0.209319 -6.28394e-19)
(-1.53615 -0.208637 6.56641e-19)
(-1.51047 -0.202746 -4.09373e-23)
(-1.4835 -0.200587 7.13772e-19)
(-1.45543 -0.197496 -7.45084e-19)
(-1.42662 -0.194104 4.10125e-24)
(-1.40263 -0.191286 -1.98316e-22)
(-1.38074 -0.188924 2.0652e-22)
(-1.3513 -0.185475 -2.14896e-22)
(-1.31341 -0.180598 1.09591e-22)
(-1.27718 -0.176318 0)
(-1.23647 -0.171132 -9.94445e-19)
(-1.22823 -0.170528 2.52641e-22)
(-1.25838 -0.175831 -2.59697e-22)
(-1.48113 -0.15627 3.63613e-25)
)
;
    }
}


// ************************************************************************* //
