# Wall shear stress
# Time        	patch         	min           	max           
5.000000e+01	aerofoil	(-1.135223e+01 -3.313172e+00 -1.971251e-17)	(1.740894e-01 1.752528e+00 3.091829e-17)
