/*--------------------------------*- C++ -*----------------------------------*\
  =========                 |
  \\      /  F ield         | OpenFOAM: The Open Source CFD Toolbox
   \\    /   O peration     | Website:  https://openfoam.org
    \\  /    A nd           | Version:  10
     \\/     M anipulation  |
\*---------------------------------------------------------------------------*/
FoamFile
{
    format      ascii;
    class       volScalarField;
    location    "491";
    object      k;
}
// * * * * * * * * * * * * * * * * * * * * * * * * * * * * * * * * * * * * * //

dimensions      [0 2 -2 0 0 0 0];

internalField   nonuniform List<scalar> 
96890
(
0.000709164
0.0247862
0.224869
0.953627
2.10847
3.07526
3.75225
4.22726
4.57803
4.85533
5.0878
5.29286
5.48185
5.66248
5.83962
6.01741
6.20052
6.39632
6.61614
6.87238
7.17235
7.50192
7.65003
0.00783238
0.271794
2.18281
5.72908
8.0263
9.34977
10.1481
10.6893
11.0884
11.4
11.6541
11.8674
12.0502
12.2091
12.3482
12.4687
12.5664
12.6274
12.6287
12.5155
12.1809
11.3789
9.5425
0.00790263
0.273991
2.19664
5.75393
8.05496
9.38091
10.1793
10.7189
11.1161
11.4271
11.6814
11.8959
12.0808
12.2425
12.3847
12.5081
12.6078
12.6693
12.6698
12.5499
12.1945
11.3411
9.42102
0.000493601
0.0171762
0.155547
0.685125
1.6374
2.52889
3.19849
3.70205
4.09905
4.42768
4.71078
4.96347
5.19426
5.40847
5.61379
5.81105
6.00131
6.19721
6.4178
6.68336
7.01411
7.43523
7.83491
1.15899e-05
0.000345465
0.0027528
0.0152569
0.0559012
0.134084
0.265825
0.430557
0.624095
0.840786
1.05763
1.27989
1.49939
1.70607
1.89932
2.07749
2.23288
2.36486
2.47971
2.57885
2.66094
2.73695
2.80011
0.000524709
0.0182782
0.165666
0.72899
1.73233
2.66197
3.34995
3.85712
4.24772
4.56431
4.83265
5.06903
5.2836
5.48385
5.6759
5.86374
6.05295
6.25121
6.4713
6.73294
7.05785
7.4581
7.79532
0.000510293
0.0177682
0.160993
0.709505
1.69389
2.61198
3.29657
3.80422
4.19682
4.51596
4.78664
5.02502
5.24217
5.44597
5.6421
5.83561
6.03068
6.23279
6.45445
6.7172
7.04481
7.45435
7.81117
0.000655333
0.022837
0.206402
0.885256
1.99669
2.95195
3.62945
4.11279
4.47497
4.7623
5.0026
5.21365
5.40703
5.59048
5.76976
5.94964
6.13398
6.33045
6.55032
6.80831
7.11836
7.47814
7.66262
0.000637094
0.0221983
0.200699
0.864011
1.96285
2.91362
3.59182
4.07627
4.44013
4.7301
4.97348
5.18748
5.38329
5.56878
5.74968
5.93066
6.11602
6.31338
6.53379
6.79299
7.10652
7.4746
7.69153
0.000619869
0.0215942
0.195248
0.843338
1.92908
2.87784
3.55863
4.04601
4.41322
4.70617
4.95237
5.16877
5.36648
5.55335
5.73497
5.91622
6.10253
6.30065
6.52164
6.78208
7.09899
7.47403
7.69402
0.000599947
0.0209019
0.189101
0.820015
1.89055
2.8364
3.51937
4.01173
4.38436
4.68205
4.93228
5.15185
5.35189
5.5402
5.72251
5.90441
6.09134
6.28989
6.51124
6.77259
7.0923
7.47274
7.7
0.000577803
0.0201308
0.182254
0.794046
1.84615
2.78929
3.47467
3.97211
4.35024
4.65326
4.90835
5.13203
5.33536
5.52606
5.71008
5.89318
6.08084
6.27959
6.50096
6.76288
7.08478
7.47144
7.73471
0.000555161
0.0193421
0.1752
0.766846
1.80004
2.73931
3.42673
3.92949
4.31374
4.62324
4.88405
5.11245
5.31961
5.5133
5.69963
5.88417
6.07259
6.27136
6.49244
6.7544
7.07768
7.46953
7.7486
0.00068094
0.0237279
0.214271
0.914098
2.04431
3.00776
3.68735
4.16836
4.52614
4.8087
5.04453
5.25142
5.44135
5.62259
5.80052
5.97919
6.16276
6.35909
6.57922
6.8369
7.14378
7.49521
7.67297
0.000572893
0.0202753
0.185612
0.773576
1.74435
2.60089
3.21914
3.68178
4.05414
4.37124
4.64884
4.89282
5.11245
5.32609
5.5286
5.72131
5.94447
6.17951
6.41856
6.69428
7.03623
7.47807
7.90776
0.000702317
0.0244712
0.220837
0.938358
2.08415
3.05015
3.72859
4.20649
4.55921
4.83751
5.06985
5.27461
5.4635
5.64424
5.8218
6.00016
6.18358
6.37969
6.59982
6.85697
7.16028
7.50033
7.64734
0.000887004
0.031016
0.280498
1.15516
2.41981
3.40745
4.08142
4.54464
4.88524
5.15295
5.37759
5.57748
5.76436
5.94572
6.12585
6.30672
6.48994
6.67972
6.88651
7.11955
7.38224
7.65808
7.64098
0.000731951
0.0255991
0.232
0.979083
2.15003
3.1207
3.79774
4.27152
4.62147
4.89766
5.12906
5.3328
5.52021
5.69904
5.87449
6.05115
6.23371
6.42926
6.64889
6.90448
7.20239
7.52068
7.61416
0.000762105
0.0265605
0.239348
1.00529
2.19034
3.16423
3.84024
4.31154
4.65982
4.93446
5.16414
5.36613
5.55171
5.7288
5.90309
6.07926
6.26196
6.45796
6.67764
6.93228
7.22778
7.53902
7.58719
0.000783821
0.0273236
0.246108
1.02963
2.2283
3.20492
3.88038
4.35082
4.69745
4.97078
5.19852
5.39824
5.58175
5.75731
5.93078
6.10691
6.29001
6.48642
6.70626
6.95923
7.25108
7.5555
7.59484
0.000804495
0.0280436
0.252473
1.05247
2.26355
3.2422
3.91777
4.38772
4.73357
5.00512
5.23066
5.42841
5.61038
5.78513
5.95865
6.13546
6.3194
6.51631
6.73595
6.98709
7.27556
7.57288
7.58574
0.000818204
0.0286005
0.258447
1.07402
2.29758
3.2799
3.95672
4.42571
4.76978
5.03864
5.26175
5.45753
5.63858
5.81332
5.98738
6.1648
6.34929
6.54616
6.7651
7.01402
7.2985
7.59175
7.60403
0.000836513
0.0292613
0.264196
1.0957
2.33096
3.31759
3.99449
4.46154
4.80266
5.069
5.29038
5.48545
5.66671
5.84212
6.01706
6.19501
6.37947
6.57563
6.79339
7.04011
7.32033
7.60887
7.6322
0.000862591
0.0300659
0.270012
1.11576
2.36153
3.35035
4.0269
4.4924
4.83113
5.09616
5.31716
5.51287
5.69521
5.87191
6.048
6.22669
6.41096
6.60594
6.82166
7.0663
7.34297
7.62527
7.6548
0.000878011
0.0306038
0.274743
1.13221
2.38755
3.37673
4.05308
4.51709
4.85495
5.12024
5.3423
5.5393
5.72292
5.90112
6.07881
6.25875
6.44326
6.63722
6.85091
7.09281
7.36675
7.64436
7.64591
0.000886673
0.0309466
0.279029
1.14824
2.41017
3.39628
4.07064
4.53454
4.87318
5.1392
5.36221
5.56048
5.74565
5.92551
6.1047
6.28564
6.47005
6.66238
6.87302
7.11098
7.38027
7.65729
7.63341
0.00119913
0.0419311
0.376182
1.48138
2.90358
3.93909
4.63145
5.10519
5.45252
5.72424
5.94959
6.14541
6.32199
6.48519
6.63848
6.78417
6.92516
7.06706
7.2196
7.38753
7.55917
7.68505
7.48714
0.00122353
0.0427251
0.382035
1.49942
2.92793
3.96416
4.65576
5.12941
5.47622
5.74712
5.97106
6.16492
6.33912
6.49966
6.65012
6.79316
6.93223
7.07328
7.22595
7.39419
7.56584
7.68707
7.46057
0.000904277
0.0316252
0.285944
1.17568
2.45123
3.44293
4.11917
4.58323
4.92297
5.19013
5.41439
5.61434
5.80166
5.98334
6.16325
6.34297
6.52382
6.70978
6.91172
7.1394
7.39566
7.65965
7.63968
0.000924641
0.0322979
0.290967
1.19073
2.47341
3.46658
4.14335
4.60772
4.94799
5.21667
5.44289
5.64494
5.83419
6.01742
6.19796
6.37712
6.55603
6.73861
6.93574
7.15969
7.41257
7.66631
7.64758
0.000948112
0.0330532
0.296602
1.20768
2.49732
3.49311
4.17087
4.63591
4.97784
5.24823
5.47643
5.68027
5.8709
6.05467
6.23479
6.4123
6.58852
6.76777
6.96136
7.18077
7.42929
7.67669
7.6456
0.000950599
0.0332475
0.299889
1.22058
2.51779
3.5179
4.19819
4.66488
5.00824
5.28037
5.51018
5.7154
5.90664
6.09017
6.26879
6.44383
6.61688
6.79254
6.98206
7.19725
7.44051
7.68118
7.63864
0.000963312
0.0337335
0.304405
1.23667
2.54281
3.54515
4.22631
4.69495
5.04045
5.31444
5.54557
5.75155
5.9429
6.12567
6.30271
6.4754
6.64554
6.81788
7.00354
7.21449
7.45344
7.68798
7.62662
0.000985529
0.0343958
0.309096
1.25176
2.56677
3.57325
4.25658
4.72686
5.07395
5.34882
5.58077
5.78693
5.97768
6.15918
6.33429
6.50449
6.67158
6.8405
7.02253
7.22989
7.46424
7.69468
7.63201
0.00100025
0.0349355
0.313544
1.26728
2.59189
3.60056
4.28597
4.75735
5.10572
5.38153
5.61409
5.82034
6.01055
6.19084
6.3641
6.53203
6.6963
6.86219
7.04119
7.24523
7.47433
7.69926
7.63469
0.00102502
0.0357296
0.319061
1.28444
2.61621
3.62764
4.31496
4.78772
5.13682
5.41311
5.64574
5.8518
6.04148
6.22081
6.39269
6.55879
6.72102
6.88461
7.06084
7.2606
7.48398
7.70206
7.64217
0.00104752
0.0364679
0.32436
1.30117
2.64095
3.65457
4.34306
4.81655
5.16667
5.44365
5.67653
5.88232
6.07144
6.24977
6.42056
6.58529
6.74606
6.90771
7.08066
7.27506
7.49299
7.70361
7.6217
0.0010629
0.0370049
0.329048
1.31726
2.66608
3.68123
4.37067
4.84475
5.19525
5.47257
5.70563
5.9114
6.10011
6.27767
6.44735
6.61076
6.76973
6.92874
7.09773
7.28725
7.50014
7.70507
7.62263
0.00106806
0.0372345
0.332495
1.33114
2.68793
3.70575
4.39581
4.87099
5.22251
5.50063
5.73392
5.93971
6.12802
6.3047
6.47303
6.63471
6.79123
6.94706
7.11245
7.29838
7.50666
7.70576
7.60728
0.00107275
0.0374723
0.336358
1.3466
2.70922
3.73057
4.42029
4.89662
5.24938
5.52837
5.76211
5.96763
6.15511
6.33067
6.49734
6.65669
6.81045
6.96353
7.12645
7.30951
7.51276
7.70713
7.61743
0.00109724
0.038273
0.34187
1.36266
2.73046
3.75457
4.44655
4.92359
5.27686
5.55601
5.78956
5.99451
6.18116
6.35528
6.52006
6.67713
6.82876
6.98005
7.14108
7.32072
7.51817
7.70484
7.60269
0.0011046
0.0385519
0.345125
1.37624
2.75311
3.77909
4.47304
4.95092
5.30416
5.58306
5.8164
6.02064
6.20626
6.37884
6.54177
6.69698
6.84706
6.997
7.15583
7.3315
7.52339
7.70327
7.60731
0.00111061
0.0388398
0.348955
1.39
2.77442
3.8034
4.49851
4.97679
5.33019
5.60877
5.84161
6.04535
6.2299
6.401
6.56221
6.71592
6.8645
7.01249
7.16867
7.34098
7.52807
7.70012
7.58763
0.00113575
0.0396853
0.354895
1.40624
2.799
3.82821
4.52154
5.00002
5.35429
5.63368
5.86651
6.06957
6.25275
6.42211
6.58157
6.73359
6.88041
7.02628
7.18013
7.34999
7.53304
7.69843
7.59167
0.0011598
0.0404727
0.360775
1.42417
2.82083
3.85106
4.54418
5.02389
5.37938
5.65916
5.89126
6.09274
6.27398
6.4413
6.5988
6.74896
6.8941
7.03857
7.19129
7.35911
7.53864
7.69636
7.56991
0.00118472
0.0412415
0.366326
1.44235
2.84413
3.87655
4.57091
5.05168
5.40693
5.6853
5.91522
6.11381
6.29205
6.45684
6.61216
6.76055
6.90438
7.04815
7.20044
7.36672
7.5428
7.69226
7.54022
0.00119304
0.0415825
0.370218
1.45766
2.86789
3.9038
4.59974
5.07988
5.43274
5.70788
5.93437
6.12976
6.30528
6.46789
6.62149
6.76851
6.91144
7.05482
7.20683
7.37272
7.5458
7.68795
7.52696
0.00120816
0.0421079
0.374832
1.47256
2.8916
3.92993
4.62584
5.10285
5.45144
5.72245
5.94579
6.13903
6.31322
6.47507
6.62834
6.77502
6.91749
7.06053
7.21265
7.37956
7.55141
7.68808
7.52241
0.00120709
0.042124
0.376588
1.48101
2.90455
3.94203
4.63697
5.11075
5.45607
5.72544
5.94816
6.14169
6.31683
6.47952
6.63323
6.77993
6.92198
7.06453
7.21694
7.38476
7.5561
7.68707
7.51139
0.0014973
0.0522693
0.464076
1.75121
3.25309
4.27854
4.93365
5.35696
5.653
5.87418
6.0511
6.20309
6.34217
6.47618
6.60991
6.74611
6.88691
7.03595
7.19959
7.38473
7.57405
7.71898
7.52256
0.00150792
0.0525858
0.466188
1.75957
3.26597
4.29356
4.94822
5.37153
5.66704
5.88778
6.06429
6.2157
6.35404
6.48704
6.61937
6.75373
6.89234
7.03919
7.2012
7.38565
7.57582
7.72075
7.53251
0.00151341
0.0526616
0.46625
1.76277
3.27327
4.30073
4.95516
5.37868
5.67422
5.8952
6.07203
6.22362
6.3619
6.49444
6.62579
6.75872
6.89566
7.04097
7.20216
7.38697
7.57871
7.72391
7.52315
0.00151937
0.0528712
0.468102
1.76845
3.28242
4.30982
4.96402
5.38798
5.68406
5.90529
6.08212
6.23335
6.37097
6.50252
6.63245
6.76361
6.89878
7.04276
7.2035
7.38883
7.58201
7.72946
7.53802
0.00151489
0.0528448
0.469251
1.77306
3.28924
4.31807
4.97366
5.39771
5.69365
5.91475
6.09139
6.24231
6.3792
6.50947
6.63783
6.7673
6.901
7.0442
7.20487
7.39069
7.58508
7.73361
7.53235
0.00124027
0.0433119
0.386927
1.51301
2.94546
3.982
4.67355
5.14568
5.49179
5.76128
5.98372
6.17601
6.3483
6.50659
6.65475
6.79586
6.93373
7.07458
7.22781
7.39737
7.56946
7.68931
7.46546
0.00125364
0.0437478
0.390237
1.52389
2.96189
3.99932
4.69093
5.16171
5.50662
5.77512
5.99624
6.1868
6.35694
6.51292
6.65891
6.7983
6.93515
7.07575
7.22961
7.4008
7.57444
7.69291
7.45439
0.00126428
0.0441442
0.394289
1.5385
2.98019
4.01656
4.70622
5.17665
5.52061
5.78781
6.00728
6.19569
6.36344
6.51708
6.66102
6.79889
6.9349
7.07542
7.23005
7.40324
7.57909
7.69866
7.46554
0.00127595
0.0445477
0.398181
1.5504
2.995
4.03203
4.72128
5.19091
5.53365
5.79913
6.01644
6.20236
6.36759
6.51901
6.66131
6.7981
6.93351
7.07409
7.22961
7.40475
7.58324
7.70388
7.45665
0.00127879
0.0447013
0.400521
1.56055
3.00936
4.04707
4.73566
5.2038
5.54469
5.80803
6.02285
6.20643
6.36952
6.5192
6.66022
6.7962
6.93121
7.07175
7.22784
7.4049
7.58628
7.7106
7.47422
0.00129032
0.0450987
0.403566
1.57014
3.02305
4.05995
4.74815
5.21447
5.55332
5.81445
6.02684
6.20821
6.36954
6.51791
6.65813
6.79352
6.92807
7.06843
7.2249
7.40381
7.58855
7.71614
7.47075
0.00130322
0.045594
0.407491
1.57973
3.03686
4.07327
4.75943
5.22362
5.55988
5.81865
6.02884
6.20818
6.36822
6.51567
6.65515
6.79
6.9241
7.06417
7.22088
7.40164
7.59012
7.72343
7.48877
0.00132353
0.0461803
0.410961
1.58993
3.0487
4.08499
4.76913
5.23103
5.5645
5.82039
6.02875
6.20684
6.36575
6.51238
6.65119
6.78545
6.91909
7.05884
7.21568
7.39812
7.59008
7.72868
7.48641
0.00134401
0.0467424
0.414711
1.60039
3.06055
4.09427
4.77518
5.23429
5.56601
5.82067
6.02766
6.20459
6.36268
6.50862
6.64686
6.78074
6.91409
7.05361
7.21033
7.39382
7.58936
7.73538
7.50639
0.00134076
0.0467187
0.415354
1.60505
3.06667
4.10055
4.78008
5.2377
5.56775
5.82073
6.02646
6.20254
6.35958
6.50462
6.64223
6.77558
6.90866
7.04789
7.20415
7.38821
7.58715
7.74107
7.51046
0.00134112
0.0468012
0.417774
1.61258
3.07543
4.10765
4.78501
5.24052
5.5694
5.82142
6.02578
6.20037
6.35623
6.50019
6.6368
6.7695
6.90212
7.04079
7.19628
7.38098
7.58292
7.74594
7.53395
0.00134726
0.0470988
0.420544
1.61789
3.08357
4.11498
4.79107
5.24567
5.57267
5.82264
6.02538
6.19864
6.35297
6.49536
6.63064
6.76256
6.89477
7.03304
7.18776
7.37295
7.57774
7.74849
7.55443
0.00135327
0.0473028
0.422681
1.62588
3.09202
4.12265
4.7972
5.25015
5.57532
5.82398
6.02529
6.1968
6.34928
6.48984
6.62352
6.7544
6.88642
7.02486
7.17925
7.36465
7.57237
7.74922
7.54844
0.00135147
0.0473499
0.4251
1.63437
3.09993
4.12906
4.80211
5.25377
5.57802
5.8256
6.02546
6.19511
6.3453
6.48347
6.61508
6.74469
6.87661
7.01579
7.17019
7.35549
7.5658
7.75089
7.57331
0.00135991
0.0476371
0.42751
1.64142
3.10831
4.13633
4.80781
5.25836
5.58183
5.82805
6.02601
6.19318
6.34059
6.47603
6.60533
6.73346
6.86524
7.00537
7.1601
7.34547
7.55859
7.75185
7.57792
0.00138043
0.0482297
0.430484
1.64812
3.11775
4.14597
4.81629
5.26545
5.58715
5.83083
6.02574
6.18976
6.33432
6.4671
6.59403
6.72027
6.85102
6.99154
7.14741
7.33433
7.54977
7.75287
7.60137
0.00139735
0.0487002
0.432483
1.6539
3.12899
4.15701
4.82597
5.27145
5.58983
5.83057
6.02288
6.18425
6.32623
6.4568
6.58194
6.70662
6.83599
6.97609
7.13432
7.32423
7.53974
7.74086
7.60776
0.00139979
0.0487817
0.433251
1.65749
3.13262
4.15899
4.82726
5.27191
5.58913
5.82836
6.01872
6.17822
6.31857
6.44784
6.57211
6.69626
6.8253
6.96606
7.12805
7.32098
7.53536
7.73691
7.63439
0.00140951
0.0490773
0.435878
1.66442
3.13974
4.16559
4.83201
5.27588
5.59129
5.82823
6.01602
6.17279
6.31068
6.43819
6.56153
6.68571
6.81592
6.95854
7.12187
7.31579
7.53018
7.73521
7.64347
0.00141244
0.0492139
0.4369
1.66865
3.14628
4.17332
4.83932
5.28033
5.59237
5.82579
6.0102
6.16421
6.30001
6.42591
6.54838
6.67249
6.80328
6.94705
7.11213
7.30789
7.52365
7.72619
7.63841
0.00140774
0.0491292
0.438005
1.67221
3.15103
4.17717
4.84254
5.28171
5.59064
5.82109
6.00281
6.15463
6.28882
6.41392
6.53641
6.66143
6.79382
6.93952
7.1067
7.30421
7.52087
7.71947
7.61308
0.0014017
0.0490707
0.438904
1.67529
3.15806
4.18277
4.84515
5.28092
5.58693
5.8147
5.99446
6.14474
6.2779
6.40272
6.52585
6.65236
6.78698
6.93536
7.10506
7.30408
7.52018
7.7161
7.61877
0.00142861
0.0497638
0.441924
1.6848
3.16493
4.18674
4.84657
5.27917
5.58295
5.80858
5.98658
6.13548
6.26795
6.39302
6.5174
6.64596
6.78323
6.93453
7.10661
7.30655
7.52084
7.71473
7.61317
0.00144921
0.0503146
0.445136
1.69373
3.17099
4.19072
4.84776
5.27817
5.57954
5.80295
5.97902
6.1267
6.25895
6.38471
6.51045
6.64082
6.78005
6.93313
7.10642
7.30653
7.51936
7.70922
7.59334
0.00145432
0.0504827
0.446486
1.69772
3.17603
4.19427
4.84872
5.27623
5.57517
5.79669
5.97134
6.1186
6.25141
6.37847
6.50591
6.63804
6.77857
6.93225
7.10562
7.30556
7.51802
7.70243
7.56512
0.00146924
0.0508725
0.448088
1.70144
3.18022
4.19557
4.84787
5.2735
5.57033
5.79062
5.96484
6.11265
6.24668
6.37554
6.50492
6.63858
6.77999
6.93386
7.10701
7.30696
7.5196
7.70141
7.57278
0.00145881
0.050624
0.447499
1.69931
3.18034
4.19526
4.84504
5.26943
5.56555
5.78573
5.96058
6.10943
6.24489
6.37539
6.50638
6.64129
6.78327
6.93702
7.10997
7.31005
7.52271
7.69966
7.54178
0.00144905
0.0504376
0.447283
1.69914
3.18058
4.1942
4.84328
5.26655
5.56289
5.78327
5.95857
6.10841
6.24533
6.37738
6.50969
6.64544
6.78776
6.94147
7.1144
7.31455
7.52692
7.70195
7.53609
0.00144062
0.0501995
0.446244
1.69947
3.18165
4.19461
4.84417
5.26726
5.56282
5.78318
5.95905
6.10989
6.24793
6.38108
6.51428
6.65049
6.79287
6.94658
7.11941
7.3192
7.53066
7.70441
7.54362
0.00143358
0.050068
0.447032
1.7011
3.18429
4.19707
4.84595
5.26829
5.56383
5.78443
5.96084
6.1125
6.2517
6.386
6.51994
6.65647
6.7989
6.9525
7.12491
7.32377
7.53439
7.70647
7.52522
0.00144611
0.0503835
0.448169
1.70412
3.18756
4.20079
4.84838
5.26984
5.56508
5.78604
5.96355
6.11665
6.25711
6.39228
6.52661
6.66318
6.80553
6.95889
7.13061
7.32824
7.53806
7.71043
7.53592
0.00145837
0.0506851
0.449656
1.70815
3.1877
4.20156
4.8489
5.27102
5.56767
5.79006
5.96874
6.12294
6.26415
6.39967
6.53409
6.67061
6.81279
6.96583
7.13696
7.33344
7.54185
7.71398
7.54485
0.00146107
0.0509021
0.451715
1.71004
3.19199
4.20566
4.85424
5.27658
5.57335
5.79643
5.9759
6.13084
6.27257
6.40823
6.54243
6.67866
6.82055
6.97336
7.14406
7.33927
7.54525
7.71616
7.55822
0.00147537
0.0512862
0.453042
1.71373
3.19844
4.21201
4.86093
5.28376
5.58081
5.80455
5.98488
6.14043
6.28223
6.41769
6.5515
6.68739
6.82917
6.98184
7.15187
7.34546
7.54843
7.71539
7.55765
0.00149033
0.0516549
0.454442
1.71784
3.20377
4.21795
4.86731
5.29103
5.58929
5.81419
5.99539
6.15122
6.2929
6.42793
6.56131
6.69702
6.83873
6.99107
7.16008
7.35197
7.5522
7.71519
7.54807
0.00149433
0.0517997
0.4553
1.72072
3.20915
4.22471
4.87534
5.3001
5.59949
5.82525
6.00692
6.1627
6.30398
6.43834
6.57119
6.70657
6.84792
6.99947
7.16712
7.35745
7.55557
7.71633
7.55153
0.00149855
0.0519499
0.456651
1.72631
3.21701
4.23289
4.88454
5.31049
5.61123
5.83751
6.01923
6.1743
6.31459
6.44806
6.58035
6.71536
6.85617
7.00671
7.17306
7.36188
7.55837
7.7163
7.53743
0.00149186
0.0518383
0.45808
1.7315
3.22382
4.24238
4.89554
5.32273
5.62448
5.85082
6.03165
6.18557
6.32468
6.45731
6.58889
6.72327
6.86347
7.01334
7.17868
7.36601
7.56096
7.71701
7.54546
0.00148508
0.0517613
0.459348
1.73545
3.23105
4.25364
4.90868
5.33657
5.63802
5.86345
6.04306
6.19575
6.33371
6.46531
6.59628
6.73025
6.87015
7.01974
7.18447
7.3705
7.56387
7.717
7.54124
0.00149128
0.0519197
0.460467
1.74093
3.24097
4.26478
4.92131
5.34938
5.65032
5.87473
6.05306
6.20416
6.34072
6.47127
6.60149
6.73508
6.87501
7.02466
7.18928
7.37462
7.56663
7.71838
7.53426
0.00149512
0.0519993
0.46135
1.74632
3.25037
4.27717
4.93536
5.36274
5.66141
5.88342
6.05917
6.20824
6.34343
6.47321
6.60337
6.73743
6.87786
7.02775
7.19236
7.3774
7.56826
7.71944
7.55493
0.00150024
0.0521857
0.462378
1.75051
3.25904
4.28663
4.9443
5.37047
5.66595
5.88556
6.05972
6.20785
6.3428
6.47326
6.60474
6.74022
6.88173
7.03219
7.19691
7.382
7.57229
7.72034
7.5579
0.00150084
0.0522646
0.463468
1.75313
3.26108
4.28815
4.94435
5.36884
5.66279
5.88143
6.05545
6.20456
6.3414
6.474
6.60724
6.74387
6.88584
7.03631
7.20093
7.38611
7.57548
7.7221
7.54779
0.0040422
0.141447
1.20539
3.75388
5.84581
7.18163
8.082
8.76254
9.31666
9.78821
10.1967
10.5498
10.8476
11.0848
11.2521
11.3372
11.3261
11.2063
10.971
10.6178
10.1443
9.54307
8.71839
0.0041229
0.144454
1.23229
3.81929
5.92215
7.26241
8.16434
8.84716
9.40221
9.87361
10.2812
10.6326
10.9278
11.1615
11.3241
11.4036
11.387
11.2636
11.0273
10.6741
10.1997
9.59489
8.7839
0.00421917
0.147989
1.26009
3.87938
5.99022
7.33142
8.23449
8.91721
9.47257
9.94452
10.3525
10.7033
10.9968
11.2273
11.3855
11.4599
11.4392
11.3131
11.0767
10.7256
10.2538
9.64849
8.84018
0.0043512
0.152082
1.28719
3.93727
6.05632
7.39746
8.3013
8.98449
9.5408
10.0129
10.4206
10.7701
11.061
11.2872
11.44
11.5085
11.4835
11.354
11.1166
10.7674
10.3002
9.69731
8.88117
0.0044255
0.154811
1.31084
3.99211
6.11843
7.4595
8.36399
9.04824
9.60499
10.0772
10.4835
10.8304
11.117
11.3379
11.4847
11.5471
11.5155
11.3832
11.1455
10.8009
10.3407
9.74507
8.93016
0.0045199
0.158038
1.33678
4.04695
6.18057
7.52307
8.42732
9.11153
9.66712
10.1375
10.5408
10.8835
11.1649
11.3801
11.5209
11.5776
11.5406
11.4045
11.1688
10.8318
10.3804
9.79212
8.97725
0.00464445
0.16209
1.36434
4.1057
6.24298
7.58347
8.487
9.16985
9.72323
10.1906
10.59
10.9279
11.2039
11.4131
11.548
11.5992
11.558
11.4218
11.1918
10.8642
10.4215
9.83532
9.03153
0.00476596
0.1659
1.38972
4.16012
6.30335
7.64252
8.54372
9.22314
9.77293
10.2362
10.6311
10.9639
11.2345
11.4382
11.5678
11.6145
11.5716
11.4382
11.2149
10.8959
10.4633
9.88272
9.08661
0.00485711
0.169124
1.4157
4.21005
6.3569
7.69494
8.59332
9.26903
9.81475
10.2733
10.6632
10.9909
11.2565
11.4554
11.5808
11.6249
11.5821
11.4513
11.2315
10.9203
10.4998
9.9309
9.12708
0.00490429
0.171249
1.43689
4.25435
6.40443
7.742
8.6365
9.30795
9.84906
10.3027
10.6875
11.0104
11.2711
11.4655
11.5871
11.6285
11.5856
11.454
11.238
10.9372
10.5313
9.97539
9.17845
0.00152168
0.0530228
0.470639
1.77962
3.2967
4.32638
4.9825
5.40635
5.70277
5.92396
6.10043
6.25072
6.38666
6.51573
6.64255
6.77051
6.90307
7.04567
7.2063
7.39247
7.58805
7.74038
7.55247
0.00153767
0.0535693
0.474753
1.78836
3.30437
4.33365
4.99014
5.41415
5.71116
5.93271
6.109
6.25869
6.39346
6.52098
6.64634
6.77311
6.90485
7.04702
7.20756
7.39383
7.59045
7.74589
7.55475
0.00154424
0.0539216
0.478332
1.79422
3.31318
4.3417
4.99793
5.42289
5.72011
5.94137
6.11679
6.2653
6.39889
6.52527
6.64952
6.77543
6.90655
7.04826
7.20863
7.39487
7.59206
7.75026
7.57935
0.00155138
0.0541068
0.479212
1.7981
3.32026
4.35009
5.00647
5.4315
5.72835
5.94887
6.12335
6.27082
6.40331
6.52886
6.65275
6.77844
6.90934
7.05076
7.21083
7.39672
7.59383
7.75199
7.59508
0.00155634
0.0542715
0.480819
1.80374
3.32681
4.3584
5.01577
5.44025
5.73608
5.95559
6.12899
6.27562
6.40776
6.5333
6.65727
6.78308
6.91405
7.05528
7.21489
7.40023
7.59674
7.75315
7.58395
0.00156311
0.0544429
0.481869
1.80892
3.33464
4.36701
5.02321
5.44673
5.7417
5.96055
6.13369
6.28044
6.41288
6.5388
6.66317
6.7892
6.92006
7.06078
7.21943
7.40388
7.59983
7.75506
7.5889
0.00157009
0.0546147
0.482852
1.81465
3.34211
4.37386
5.02966
5.45203
5.74634
5.96482
6.13841
6.28601
6.41932
6.54591
6.67058
6.79657
6.92698
7.06685
7.22428
7.40757
7.60292
7.75747
7.57607
0.00157455
0.0548835
0.48593
1.81914
3.34896
4.37962
5.03391
5.45544
5.75029
5.97001
6.1448
6.29343
6.42747
6.55433
6.67887
6.80434
6.93382
7.07243
7.22838
7.41017
7.60479
7.76125
7.57998
0.00158129
0.0551206
0.488209
1.82405
3.35488
4.38505
5.03832
5.46071
5.75655
5.9775
6.15338
6.30268
6.43689
6.5636
6.68759
6.81211
6.94025
7.07716
7.23128
7.41108
7.60472
7.76329
7.59843
0.00159797
0.0555803
0.490152
1.82881
3.36013
4.39104
5.04523
5.46871
5.76571
5.98766
6.16402
6.31351
6.44749
6.57368
6.69688
6.82031
6.94695
7.08203
7.23404
7.41163
7.604
7.76243
7.59482
0.00161445
0.0560576
0.492558
1.83476
3.36717
4.39898
5.05414
5.47848
5.77652
5.99896
6.17559
6.32496
6.45873
6.58458
6.70722
6.82966
6.95495
7.08836
7.23855
7.41381
7.60381
7.76146
7.60492
0.00160585
0.0558208
0.492424
1.83765
3.37159
4.40602
5.06398
5.48971
5.78861
6.01111
6.18769
6.33685
6.47046
6.59606
6.71829
6.83989
6.96397
7.09605
7.24468
7.41731
7.60335
7.75753
7.59273
0.00159886
0.0557445
0.49376
1.84298
3.37928
4.4166
5.07581
5.50213
5.80055
6.02305
6.19942
6.34869
6.48269
6.60852
6.73051
6.85136
6.97423
7.10471
7.25116
7.42045
7.60161
7.75243
7.60407
0.00160272
0.0558279
0.493848
1.84628
3.38522
4.42587
5.08639
5.51359
5.81177
6.03455
6.2118
6.36202
6.49685
6.62325
6.74523
6.86543
6.98684
7.115
7.25831
7.42367
7.59982
7.74177
7.6038
0.00160662
0.0559091
0.49464
1.85214
3.39442
4.43513
5.09606
5.52348
5.82288
6.0471
6.22602
6.37794
6.51415
6.64132
6.76328
6.88266
7.00239
7.12783
7.26746
7.42877
7.60014
7.73222
7.57975
0.00161074
0.056184
0.498294
1.85943
3.40334
4.44485
5.10716
5.53603
5.83737
6.06335
6.244
6.39729
6.53438
6.6619
6.78363
6.902
7.01987
7.14265
7.2789
7.43606
7.60165
7.72525
7.56344
0.00162159
0.0565726
0.501
1.8672
3.41445
4.45772
5.12186
5.55204
5.85435
6.08174
6.26388
6.41842
6.55622
6.68365
6.80458
6.92156
7.03747
7.15762
7.2903
7.44267
7.60169
7.71578
7.5334
0.00162968
0.0568591
0.503353
1.87554
3.42764
4.47242
5.13701
5.56808
5.87207
6.10115
6.28467
6.44025
6.57853
6.70594
6.82622
6.94179
7.05552
7.1725
7.30068
7.44757
7.6007
7.70716
7.5023
0.00162687
0.0568857
0.505779
1.88371
3.43765
4.48471
5.15179
5.58479
5.89071
6.12164
6.30671
6.46345
6.60223
6.72943
6.84892
6.96302
7.07408
7.18671
7.30931
7.45082
7.59952
7.70058
7.48669
0.00163536
0.0571636
0.508026
1.89165
3.44958
4.49845
5.16686
5.60205
5.91035
6.1432
6.32973
6.48713
6.62609
6.75301
6.87165
6.98378
7.09122
7.19864
7.31579
7.4527
7.59773
7.69495
7.48388
0.00165751
0.0577121
0.510268
1.90044
3.46359
4.51409
5.18338
5.62108
5.93173
6.16609
6.35319
6.51062
6.6494
6.77598
6.89366
7.00361
7.10725
7.21006
7.32304
7.45597
7.59638
7.68882
7.46777
0.00166902
0.058118
0.513383
1.9105
3.47842
4.53111
5.20208
5.64199
5.95369
6.18844
6.37553
6.53292
6.67145
6.79746
6.91386
7.02143
7.12179
7.22104
7.33044
7.45929
7.59444
7.6828
7.4684
0.00167647
0.0584444
0.516793
1.92016
3.49314
4.54941
5.22284
5.66366
5.97508
6.20926
6.39595
6.55305
6.69131
6.8166
6.93165
7.03725
7.13485
7.23016
7.33502
7.45992
7.59178
7.6749
7.45855
0.00168779
0.058782
0.51962
1.93028
3.50847
4.56664
5.24126
5.68193
5.99285
6.22712
6.41407
6.57127
6.70908
6.8333
6.94691
7.05087
7.14573
7.23627
7.33637
7.45894
7.59042
7.66811
7.43544
0.00169264
0.0589624
0.521364
1.936
3.51722
4.57886
5.2547
5.69632
6.00824
6.24402
6.43223
6.58959
6.72631
6.84867
6.96023
7.06239
7.15495
7.24208
7.34003
7.46214
7.59224
7.66465
7.43277
0.00169103
0.0590407
0.524107
1.94438
3.52629
4.58972
5.26747
5.71116
6.02657
6.26483
6.45364
6.60989
6.74407
6.86324
6.97192
7.07224
7.16417
7.25201
7.35194
7.47339
7.59683
7.66277
7.41974
0.0017075
0.0596694
0.528907
1.95842
3.54713
4.61196
5.29184
5.73798
6.05458
6.29188
6.4782
6.63083
6.761
6.87618
6.98126
7.07934
7.17196
7.26378
7.3667
7.48459
7.59861
7.65917
7.40142
0.00173814
0.0606499
0.535612
1.9762
3.57177
4.63926
5.32057
5.76586
6.08066
6.3154
6.49858
6.64779
6.7745
6.88658
6.98904
7.08533
7.17878
7.27422
7.37652
7.48717
7.59367
7.6469
7.39799
0.0017478
0.0610494
0.539786
1.98771
3.58797
4.65815
5.34104
5.78584
6.09888
6.33166
6.51312
6.66105
6.78686
6.89833
7.00061
7.09762
7.19214
7.2865
7.38444
7.49053
7.59409
7.63835
7.40639
0.00176567
0.0616739
0.545263
2.00478
3.60703
4.67737
5.35853
5.80251
6.11462
6.34646
6.52725
6.67503
6.80121
6.91364
7.01705
7.11435
7.20717
7.29838
7.39363
7.4977
7.5986
7.63645
7.38533
0.00177893
0.0620622
0.548522
2.01566
3.62179
4.69441
5.37504
5.81767
6.12893
6.35998
6.54055
6.68891
6.81598
6.92928
7.03342
7.13088
7.22343
7.31424
7.40801
7.5078
7.6013
7.6291
7.3785
0.00179725
0.0626932
0.553332
2.02833
3.63889
4.71075
5.39025
5.83203
6.14288
6.37456
6.55601
6.70537
6.83372
6.94838
7.05367
7.15229
7.24617
7.33765
7.42899
7.52272
7.60645
7.62424
7.35694
0.00182501
0.0635624
0.55882
2.04218
3.65595
4.72761
5.40668
5.84802
6.15917
6.39124
6.57343
6.72369
6.85304
6.96874
7.07523
7.17515
7.26959
7.35909
7.44515
7.53173
7.60828
7.61887
7.33309
0.00182756
0.0637698
0.562412
2.05452
3.67105
4.74078
5.42024
5.86231
6.17454
6.40773
6.59089
6.74222
6.8729
6.99016
7.09814
7.19867
7.29154
7.37637
7.4559
7.53602
7.60782
7.61313
7.32434
0.00181666
0.0636396
0.564811
2.06405
3.68453
4.75525
5.43486
5.87756
6.19066
6.42495
6.60932
6.76198
6.8943
7.0134
7.12283
7.22335
7.31371
7.39396
7.46816
7.54267
7.60891
7.60944
7.32342
0.00184178
0.0644497
0.57026
2.07756
3.69932
4.77109
5.4505
5.89355
6.20746
6.44254
6.62836
6.78297
6.91747
7.03854
7.14912
7.24931
7.33775
7.41473
7.48417
7.55235
7.61143
7.60518
7.30561
0.00187019
0.0652752
0.575019
2.08935
3.71356
4.78742
5.46644
5.91028
6.22505
6.46164
6.64927
6.806
6.94279
7.06583
7.1775
7.27743
7.36427
7.43786
7.50158
7.56258
7.61454
7.6026
7.30414
0.0018806
0.0655578
0.577368
2.09808
3.72764
4.8037
5.48302
5.92765
6.24377
6.48208
6.67202
6.83132
6.97054
7.09528
7.20748
7.30667
7.39103
7.45983
7.51692
7.57108
7.61768
7.60109
7.29326
0.00189685
0.0661249
0.581765
2.11147
3.74344
4.81986
5.50087
5.94636
6.26428
6.50474
6.69723
6.85909
7.00017
7.12595
7.23808
7.33558
7.41622
7.4796
7.53057
7.57888
7.621
7.60279
7.30428
0.00190843
0.0665322
0.585246
2.12344
3.76005
4.83784
5.52
5.96688
6.28684
6.53003
6.72505
6.88888
7.03142
7.15753
7.26868
7.36367
7.44039
7.49922
7.54541
7.58838
7.62564
7.60511
7.31598
0.0019231
0.0670567
0.590733
2.13792
3.77805
4.85758
5.54044
5.9898
6.31216
6.55753
6.75454
6.92002
7.06325
7.18906
7.29856
7.39084
7.46414
7.51933
7.56128
7.59893
7.63093
7.60646
7.31054
0.00193657
0.0675268
0.594781
2.15021
3.79518
4.87731
5.56214
6.01396
6.33881
6.58671
6.78542
6.95178
7.09503
7.22
7.32773
7.4173
7.48742
7.53903
7.57688
7.60959
7.63685
7.60884
7.31868
0.00194098
0.0678104
0.598928
2.1621
3.81263
4.89813
5.58507
6.04001
6.36714
6.6167
6.81653
6.98332
7.12635
7.25022
7.35603
7.44303
7.51015
7.5586
7.59336
7.62228
7.64521
7.61178
7.31376
0.0019713
0.0688265
0.604786
2.17739
3.83288
4.92177
5.61105
6.06782
6.39627
6.64642
6.84664
7.01352
7.15618
7.27903
7.38321
7.46804
7.53289
7.5794
7.61251
7.63841
7.6562
7.61655
7.32788
0.00200116
0.0696922
0.610506
2.19535
3.85466
4.94524
5.63663
6.09468
6.42406
6.67488
6.87572
7.04292
7.1854
7.30744
7.41037
7.4939
7.55792
7.60415
7.6365
7.65935
7.67081
7.62098
7.33265
0.0020172
0.0702442
0.615715
2.20964
3.87324
4.96716
5.66011
6.11898
6.44966
6.70206
6.90416
7.07212
7.21476
7.33635
7.43868
7.52209
7.58675
7.63374
7.66552
7.68531
7.68999
7.62746
7.3219
0.00203525
0.0708654
0.620872
2.22487
3.89312
4.98811
5.68188
6.14304
6.47537
6.72952
6.93298
7.10165
7.24444
7.36593
7.46833
7.55239
7.61832
7.6664
7.69767
7.71436
7.71205
7.63809
7.3188
0.00204139
0.0711624
0.625525
2.24005
3.91363
5.01179
5.70663
6.16912
6.5029
6.75839
6.96261
7.1314
7.27405
7.39557
7.49856
7.58396
7.65158
7.70076
7.73137
7.74421
7.73449
7.64873
7.30665
0.00206497
0.0719783
0.631877
2.25657
3.93618
5.03553
5.73134
6.19539
6.53052
6.78682
6.9917
7.16105
7.30426
7.4267
7.53132
7.61901
7.689
7.73971
7.76951
7.7776
7.75943
7.66155
7.30831
0.00207322
0.0723796
0.636956
2.27175
3.95957