/*--------------------------------*- C++ -*----------------------------------*\
  =========                 |
  \\      /  F ield         | OpenFOAM: The Open Source CFD Toolbox
   \\    /   O peration     | Website:  https://openfoam.org
    \\  /    A nd           | Version:  10
     \\/     M anipulation  |
\*---------------------------------------------------------------------------*/
FoamFile
{
    format      ascii;
    class       volScalarField;
    location    "491";
    object      nut;
}
// * * * * * * * * * * * * * * * * * * * * * * * * * * * * * * * * * * * * * //

dimensions      [0 2 -1 0 0 0 0];

internalField   nonuniform List<scalar> 
96890
(
5.66972e-11
1.27729e-08
3.8041e-07
3.37584e-06
1.22475e-05
2.66661e-05
4.62387e-05
7.10416e-05
0.000101542
0.000138715
0.000183802
0.000238312
0.000304203
0.000384208
0.000482171
0.000604158
0.000760881
0.000972707
0.0012754
0.00167627
0.00207177
0.00207481
0.0013451
6.27834e-10
1.35946e-07
3.13363e-06
1.5847e-05
3.65259e-05
6.62715e-05
0.000104136
0.000151149
0.000208956
0.000279317
0.000364564
0.000467573
0.000592335
0.000745157
0.000937331
0.0011903
0.00154211
0.00204709
0.00274607
0.0033031
0.00344171
0.00308324
0.00214073
6.34658e-10
1.37194e-07
3.15362e-06
1.59054e-05
3.66017e-05
6.63637e-05
0.000104305
0.000151354
0.000209158
0.000279565
0.000364895
0.000468103
0.000593307
0.000746996
0.000940782
0.00119645
0.00155181
0.00206031
0.00276629
0.00329065
0.00340291
0.00305119
0.00219526
3.96882e-11
8.88522e-09
2.68773e-07
2.57919e-06
1.03819e-05
2.41592e-05
4.32092e-05
6.74413e-05
9.71926e-05
0.000133204
0.00017654
0.000228625
0.000291262
0.000366837
0.000458655
0.000571556
0.000713785
0.000900651
0.00116054
0.00152176
0.0018739
0.00189807
0.00133862
9.28678e-13
1.57829e-10
4.50802e-09
6.73372e-08
4.53739e-07
1.57826e-06
3.96229e-06
7.51616e-06
1.24321e-05
1.90179e-05
2.69117e-05
3.64175e-05
4.73752e-05
5.94517e-05
7.28252e-05
8.75797e-05
0.000103333
0.00012006
0.000138157
0.000157765
0.000178965
0.000201889
0.000228325
4.21676e-11
9.45203e-09
2.85121e-07
2.70021e-06
1.06475e-05
2.44388e-05
4.3408e-05
6.76227e-05
9.75348e-05
0.000133912
0.000177839
0.000230709
0.000294313
0.000371083
0.000464477
0.000576078
0.000715741
0.000904695
0.00117268
0.00153674
0.00191154
0.0019649
0.00134705
4.10095e-11
9.18976e-09
2.77647e-07
2.64774e-06
1.05399e-05
2.4315e-05
4.33049e-05
6.75167e-05
9.73474e-05
0.000133569
0.000177255
0.000229776
0.000292977
0.000369296
0.000462144
0.000576727
0.000721745
0.000913167
0.00117986
0.00154638
0.00191578
0.00195146
0.00138564
5.26877e-11
1.17947e-08
3.50887e-07
3.17308e-06
1.17816e-05
2.60646e-05
4.54375e-05
7.00398e-05
0.000100365
0.000137232
0.000181793
0.000235568
0.000300554
0.000379355
0.000475697
0.000595498
0.000746184
0.000948492
0.00123512
0.00162158
0.00199932
0.00200157
0.00144454
5.12218e-11
1.14674e-08
3.41861e-07
3.11477e-06
1.16749e-05
2.59308e-05
4.53185e-05
6.99373e-05
0.000100285
0.000137171
0.000181727
0.000235436
0.000300235
0.000378729
0.000474649
0.000592728
0.000741115
0.000941123
0.00122474
0.00160809
0.00198632
0.00200008
0.00140271
4.98622e-11
1.11615e-08
3.33211e-07
3.05493e-06
1.15466e-05
2.57796e-05
4.51906e-05
6.98348e-05
0.000100228
0.000137171
0.000181775
0.000235478
0.00030018
0.000378496
0.000473787
0.000589121
0.000735486
0.000933027
0.00121259
0.00158996
0.00196165
0.0019798
0.00145101
4.82602e-11
1.0806e-08
3.23339e-07
2.98477e-06
1.13846e-05
2.55579e-05
4.4921e-05
6.95624e-05
9.99748e-05
0.000136933
0.000181538
0.000235196
0.000299791
0.000377864
0.000471678
0.000585375
0.000729881
0.000924789
0.00120008
0.00157112
0.00193684
0.00195973
0.00143667
4.64564e-11
1.04053e-08
3.12225e-07
2.906e-06
1.11864e-05
2.52826e-05
4.45753e-05
6.91704e-05
9.95419e-05
0.000136441
0.000180967
0.000234507
0.000298916
0.000376678
0.000469543
0.000581836
0.00072453
0.000917137
0.00118922
0.00155642
0.00192421
0.00195432
0.00136258
4.46365e-11
1.00003e-08
3.00782e-07
2.82308e-06
1.09897e-05
2.50161e-05
4.42523e-05
6.87972e-05
9.91043e-05
0.000135959
0.00018043
0.000233866
0.00029811
0.0003756
0.000468143
0.000579367
0.000720731
0.00091173
0.00118136
0.0015456
0.0019122
0.0019487
0.00139525
5.47729e-11
1.22563e-08
3.63722e-07
3.26224e-06
1.20066e-05
2.64624e-05
4.60319e-05
7.08275e-05
0.000101367
0.000138507
0.000183443
0.000237687
0.000303218
0.000382703
0.000479938
0.000600749
0.000752551
0.000957834
0.00124803
0.00163837
0.00201901
0.00201037
0.00138289
4.50974e-11
1.04934e-08
3.19855e-07
2.90409e-06
1.1294e-05
2.60775e-05
4.64816e-05
7.22729e-05
0.000103613
0.000141095
0.000185909
0.000239286
0.000302894
0.000379496
0.000472228
0.000585737
0.000729454
0.000919189
0.00118094
0.00151176
0.00180303
0.00180456
0.00130461
5.65194e-11
1.26442e-08
3.74547e-07
3.3408e-06
1.22054e-05
2.66677e-05
4.62857e-05
7.13017e-05
0.000101934
0.000139218
0.000184333
0.00023882
0.000304665
0.000384545
0.000482271
0.000603838
0.000758246
0.000966517
0.00126027
0.00165315
0.00203186
0.00201923
0.0014836
7.05187e-11
1.58686e-08
4.66998e-07
3.96774e-06
1.36034e-05
2.86227e-05
4.91039e-05
7.48501e-05
0.000106717
0.00014565
0.000192978
0.000250415
0.000320118
0.000404976
0.000509091
0.000638884
0.000805752
0.00103148
0.00135087
0.00174306
0.00211715
0.00205058
0.00152741
5.8533e-11
1.31904e-08
3.91814e-07
3.44944e-06
1.24278e-05
2.69288e-05
4.66403e-05
7.16043e-05
0.000102354
0.000139842
0.000185316
0.000240283
0.000306706
0.000387341
0.000486061
0.000609082
0.000767214
0.000980955
0.001284
0.00168076
0.00206423
0.0020923
0.001408
6.13589e-11
1.37183e-08
4.03945e-07
3.53067e-06
1.26133e-05
2.7211e-05
4.70705e-05
7.2153e-05
0.000103095
0.000140825
0.000186568
0.00024185
0.000308674
0.00038981
0.000489187
0.000613054
0.00077236
0.000987821
0.0012906
0.0016831
0.00204784
0.00205066
0.00150257
6.31066e-11
1.41124e-08
4.14791e-07
3.60429e-06
1.27834e-05
2.74593e-05
4.74359e-05
7.26721e-05
0.000103782
0.000141729
0.000187714
0.000243261
0.000310448
0.000392046
0.000492008
0.000616656
0.000777002
0.0009938
0.00130456
0.00170357
0.00207569
0.00208004
0.00148593
6.47703e-11
1.44811e-08
4.2492e-07
3.67256e-06
1.29437e-05
2.7708e-05
4.78178e-05
7.3179e-05
0.000104459
0.000142577
0.000188745
0.000244562
0.0003121
0.000394133
0.000494671
0.000620107
0.000781569
0.000999976
0.00131394
0.00171468
0.00208294
0.00208261
0.00156027
6.54492e-11
1.47295e-08
4.33635e-07
3.73715e-06
1.3107e-05
2.798e-05
4.82117e-05
7.36817e-05
0.000105086
0.000143338
0.000189702
0.000245778
0.000313664
0.000396194
0.000497376
0.000623682
0.00078645
0.0010069
0.00132352
0.00172646
0.00209429
0.00208405
0.00159656
6.68965e-11
1.50699e-08
4.42927e-07
3.80798e-06
1.32664e-05
2.82015e-05
4.85023e-05
7.40427e-05
0.00010552
0.000143896
0.000190471
0.000246842
0.000315158
0.000398226
0.000500134
0.000627378
0.000791489
0.00101395
0.00133424
0.00174823
0.00212781
0.00211687
0.00158523
6.94447e-11
1.55221e-08
4.5272e-07
3.86959e-06
1.33922e-05
2.83281e-05
4.8638e-05
7.42981e-05
0.000105873
0.000144449
0.000191296
0.000248052
0.000316863
0.000400563
0.000503263
0.000631478
0.000796786
0.00102067
0.00134217
0.00176841
0.00216274
0.00216703
0.00151948
7.06851e-11
1.57964e-08
4.5998e-07
3.91099e-06
1.34807e-05
2.84023e-05
4.87611e-05
7.46258e-05
0.000106402
0.000145254
0.000192464
0.000249701
0.000319052
0.000403395
0.000506864
0.000635948
0.000802083
0.00102659
0.00134828
0.0017642
0.00214773
0.00215203
0.00150584
7.09275e-11
1.59018e-08
4.66113e-07
3.95666e-06
1.35991e-05
2.85383e-05
4.89676e-05
7.50519e-05
0.000107028
0.000146077
0.0001935
0.000250992
0.00032066
0.000405395
0.000509317
0.000638951
0.000805625
0.00103069
0.00134965
0.00174641
0.00211636
0.00210766
0.00158841
9.55638e-11
2.14525e-08
6.18358e-07
4.94701e-06
1.58068e-05
3.20307e-05
5.39624e-05
8.15864e-05
0.000115839
0.00015779
0.00020886
0.00027066
0.000345258
0.000435311
0.000544717
0.000680021
0.000853353
0.00108803
0.00142671
0.00188704
0.00228077
0.00227128
0.00156356
9.79947e-11
2.1929e-08
6.28576e-07
5.00486e-06
1.59274e-05
3.22184e-05
5.42175e-05
8.19646e-05
0.000116364
0.0001585
0.000209751
0.000271726
0.000346476
0.000436656
0.000546133
0.000681403
0.000854656
0.00108948
0.00142885
0.00187799
0.00225772
0.00224356
0.00167524
7.18936e-11
1.61828e-08
4.75911e-07
4.03675e-06
1.37641e-05
2.885e-05
4.94334e-05
7.53782e-05
0.000107413
0.000146593
0.000194242
0.000252071
0.000322291
0.000407759
0.000512555
0.000643096
0.000810911
0.00103804
0.00136578
0.0018013
0.00220749
0.00211227
0.00142987
7.39827e-11
1.65967e-08
4.85077e-07
4.08364e-06
1.38626e-05
2.89725e-05
4.95923e-05
7.56187e-05
0.000107734
0.000147076
0.000194974
0.000253131
0.000323735
0.000409678
0.000515008
0.000646149
0.000814571
0.00104214
0.00137002
0.00182387
0.00221209
0.00217678
0.00155673
7.63608e-11
1.70571e-08
4.95275e-07
4.13735e-06
1.39714e-05
2.91514e-05
4.98915e-05
7.59908e-05
0.000108274
0.000147837
0.000196047
0.000254591
0.000325679
0.000412159
0.0005181
0.000649804
0.000818579
0.0010462
0.00137415
0.00180737
0.00217683
0.00213987
0.00154003
7.59672e-11
1.70974e-08
4.99355e-07
4.17265e-06
1.405e-05
2.92827e-05
5.01176e-05
7.63364e-05
0.000108776
0.000148559
0.000197042
0.000255942
0.000327443
0.000414405
0.000520744
0.000652681
0.000821582
0.00104964
0.00137863
0.00182344
0.00220165
0.0021665
0.00153353
7.68482e-11
1.73273e-08
5.06279e-07
4.21844e-06
1.4164e-05
2.94873e-05
5.04082e-05
7.67303e-05
0.000109357
0.000149392
0.000198168
0.000257422
0.000329308
0.000416654
0.000523379
0.000655734
0.0008253
0.00105452
0.00138471
0.00182613
0.00220153
0.00216857
0.00157847
7.90324e-11
1.76939e-08
5.14108e-07
4.26282e-06
1.4274e-05
2.96803e-05
5.06938e-05
7.71509e-05
0.00010997
0.000150211
0.000199283
0.000258877
0.000331095
0.000418783
0.000525872
0.000658742
0.00082892
0.00105836
0.00138753
0.00182963
0.00220421
0.00216472
0.00158733
8.01916e-11
1.79684e-08
5.20603e-07
4.3088e-06
1.43946e-05
2.98685e-05
5.09767e-05
7.75547e-05
0.000110534
0.00015097
0.00020029
0.000260184
0.000332745
0.000420792
0.000528256
0.000661488
0.000831591
0.00105995
0.00138734
0.00183708
0.00221342
0.00216814
0.00159264
8.27116e-11
1.84539e-08
5.30058e-07
4.36546e-06
1.45122e-05
3.00474e-05
5.12394e-05
7.79388e-05
0.000111072
0.000151708
0.000201241
0.000261374
0.000334211
0.000422583
0.000530339
0.00066364
0.000833408
0.00106155
0.00139035
0.00184648
0.00222867
0.00218575
0.00152476
8.4944e-11
1.88959e-08
5.39013e-07
4.41945e-06
1.46352e-05
3.0242e-05
5.1515e-05
7.83218e-05
0.000111604
0.000152432
0.000202201
0.000262575
0.000335688
0.000424294
0.000532286
0.000665734
0.000836088
0.0010665
0.00139995
0.00184896
0.00222678
0.00218184
0.00157049
8.61894e-11
1.91724e-08
5.46447e-07
4.46794e-06
1.4757e-05
3.04313e-05
5.1788e-05
7.87128e-05
0.000112135
0.000153129
0.000203083
0.000263673
0.000337035
0.00042588
0.000534132
0.000668194
0.000840032
0.00107308
0.00140918
0.00185396
0.00223431
0.00219213
0.0015335
8.60773e-11
1.92109e-08
5.51187e-07
4.5053e-06
1.4852e-05
3.05991e-05
5.20136e-05
7.90389e-05
0.000112601
0.000153774
0.000203896
0.000264691
0.000338275
0.000427369
0.000536006
0.000670786
0.000843553
0.00107667
0.00141046
0.0018542
0.00223188
0.00219203
0.00162179
8.59025e-11
1.92488e-08
5.57094e-07
4.55102e-06
1.49448e-05
3.07805e-05
5.22486e-05
7.93636e-05
0.000113054
0.000154378
0.0002047
0.000265701
0.000339481
0.000428866
0.00053788
0.000672932
0.000845269
0.00107655
0.00140728
0.00185612
0.00223469
0.00218568
0.00155293
8.84053e-11
1.97386e-08
5.66525e-07
4.60443e-06
1.50499e-05
3.0952e-05
5.25146e-05
7.97319e-05
0.000113526
0.00015498
0.000205458
0.000266628
0.000340628
0.000430243
0.000539407
0.000674248
0.000845881
0.00107658
0.00140854
0.00186398
0.00224615
0.00219574
0.00159636
8.8583e-11
1.98204e-08
5.70608e-07
4.64086e-06
1.51502e-05
3.11118e-05
5.27662e-05
8.00921e-05
0.000113982
0.000155537
0.000206177
0.000267514
0.000341712
0.000431466
0.000540642
0.000675373
0.000847287
0.00107987
0.001416
0.00187131
0.00226023
0.00221047
0.00153682
8.85999e-11
1.98971e-08
5.7617e-07
4.67988e-06
1.525e-05
3.12683e-05
5.29827e-05
8.03749e-05
0.000114376
0.000156047
0.000206796
0.000268283
0.000342621
0.000432458
0.000541681
0.000676777
0.00084983
0.00108427
0.00142223
0.00187743
0.00226891
0.00221908
0.00159179
9.11814e-11
2.0443e-08
5.86473e-07
4.73205e-06
1.53744e-05
3.14297e-05
5.31625e-05
8.06021e-05
0.000114705
0.000156518
0.000207384
0.000269005
0.000343452
0.000433406
0.000542858
0.000678425
0.000852129
0.00108657
0.00142259
0.00188338
0.00228284
0.00224134
0.0015329
9.35727e-11
2.09136e-08
5.96773e-07
4.79018e-06
1.54754e-05
3.15973e-05
5.33698e-05
8.09027e-05
0.000115129
0.000157075
0.000208058
0.00026976
0.000344317
0.000434445
0.00054416
0.000679925
0.000853442
0.00108689
0.00142118
0.00187386
0.00226403
0.00222285
0.00150398
9.60548e-11
2.13491e-08
6.06437e-07
4.8501e-06
1.55931e-05
3.18086e-05
5.36592e-05
8.13116e-05
0.000115647
0.000157695
0.000208803
0.000270626
0.00034529
0.000435597
0.000545446
0.000681188
0.000854543
0.00108822
0.00142406
0.00186807
0.00225014
0.00220123
0.00154515
9.62508e-11
2.14549e-08
6.11567e-07
4.89656e-06
1.57138e-05
3.20207e-05
5.39491e-05
8.16912e-05
0.000116101
0.000158219
0.000209431
0.000271406
0.000346232
0.000436677
0.000546561
0.000682254
0.000855855
0.00109081
0.00142908
0.00187966
0.00227324
0.00222936
0.00156859
9.74696e-11
2.17236e-08
6.18962e-07
4.93988e-06
1.58219e-05
3.21559e-05
5.4188e-05
8.19883e-05
0.000116458
0.000158637
0.000209946
0.000272041
0.000346971
0.000437411
0.000547272
0.000683032
0.000856949
0.00109246
0.00143107
0.00189432
0.00229912
0.00226503
0.00157098
9.68018e-11
2.16449e-08
6.20993e-07
4.96137e-06
1.5872e-05
3.21073e-05
5.42312e-05
8.20995e-05
0.000116534
0.000158695
0.000209951
0.000271942
0.00034674
0.000436995
0.000546669
0.000682357
0.000856237
0.00109141
0.00142922
0.00190335
0.00231651
0.00230427
0.00155756
1.19973e-10
2.68444e-08
7.53264e-07
5.69567e-06
1.7182e-05
3.36902e-05
5.60161e-05
8.34311e-05
0.000117095
0.00015802
0.000207439
0.000266983
0.000338638
0.000425079
0.000530256
0.000660541
0.000827558
0.00105409
0.00138291
0.00187723
0.00229253
0.0023027
0.00180318
1.20824e-10
2.69683e-08
7.55587e-07
5.71594e-06
1.7229e-05
3.37902e-05
5.61786e-05
8.36803e-05
0.000117443
0.000158486
0.000208053
0.000267749
0.00033955
0.000426123
0.000531362
0.00066161
0.000828477
0.00105475
0.00138279
0.00187466
0.00230868
0.00232674
0.00177413
1.21265e-10
2.69275e-08
7.544e-07
5.71741e-06
1.72476e-05
3.38318e-05
5.62195e-05
8.37577e-05
0.000117561
0.000158647
0.000208267
0.000267995
0.00033982
0.000426401
0.000531563
0.000661625
0.000828147
0.00105358
0.00137997
0.00186901
0.0023079
0.00233119
0.00184039
1.21742e-10
2.70332e-08
7.57141e-07
5.73244e-06
1.72888e-05
3.39079e-05
5.63239e-05
8.3903e-05
0.000117772
0.000158922
0.000208611
0.000268396
0.000340248
0.000426827
0.00053193
0.000661795
0.000827825
0.00105236
0.00137756
0.00186529
0.00230756
0.00233272
0.00179064
1.20782e-10
2.69691e-08
7.57729e-07
5.74266e-06
1.73172e-05
3.3954e-05
5.64271e-05
8.406e-05
0.000117975
0.000159171
0.000208896
0.000268711
0.000340598
0.000427142
0.000532154
0.00066176
0.000827379
0.00105164
0.00137728
0.00186687
0.00230995
0.00233953
0.0018834
9.94337e-11
2.22433e-08
6.3655e-07
5.04336e-06
1.60026e-05
3.23356e-05
5.43948e-05
8.2173e-05
0.00011665
0.000158843
0.000210118
0.000272116
0.00034685
0.000436931
0.000546219
0.00068128
0.000854518
0.00108998
0.00143072
0.0018873
0.00227597
0.0022697
0.00165666
1.00532e-10
2.24693e-08
6.40999e-07
5.07289e-06
1.60732e-05
3.2434e-05
5.45602e-05
8.23855e-05
0.000116908
0.000159146
0.000210453
0.000272457
0.000347143
0.000437128
0.000546292
0.000681299
0.000854718
0.00109054
0.00143163
0.00189113
0.00227965
0.00227838
0.00172131
1.01263e-10
2.26524e-08
6.4764e-07
5.11948e-06
1.61658e-05
3.2574e-05
5.47136e-05
8.25939e-05
0.000117153
0.000159411
0.000210735
0.000272708
0.000347314
0.000437194
0.000546263
0.000681188
0.000854517
0.00109014
0.0014309
0.00189383
0.00228359
0.00228799
0.00167802
1.02199e-10
2.2857e-08
6.54385e-07
5.15575e-06
1.62329e-05
3.26803e-05
5.48502e-05
8.27656e-05
0.000117353
0.000159622
0.000210939
0.000272862
0.000347363
0.00043709
0.000545991
0.000680749
0.000853809
0.00108919
0.00143007
0.00189348
0.00227834
0.00228453
0.00177098
1.0192e-10
2.28604e-08
6.56812e-07
5.18325e-06
1.62932e-05
3.27662e-05
5.49695e-05
8.29021e-05
0.000117489
0.00015975
0.000211002
0.000272836
0.000347213
0.000436783
0.000545526
0.0006801
0.00085306
0.00108853
0.00142981
0.00189652
0.00228278
0.00228931
0.00173408
1.02841e-10
2.30613e-08
6.60829e-07
5.20951e-06
1.63552e-05
3.28408e-05
5.50599e-05
8.29826e-05
0.000117549
0.000159788
0.000210967
0.000272686
0.00034694
0.000436363
0.000544979
0.000679468
0.00085236
0.00108783
0.00142899
0.00189846
0.00228381
0.00229509
0.00178837
1.0387e-10
2.33474e-08
6.66441e-07
5.23312e-06
1.64112e-05
3.29158e-05
5.51436e-05
8.3066e-05
0.000117592
0.000159772
0.000210893
0.000272493
0.000346649
0.000435977
0.000544487
0.000678891
0.000851658
0.0010868
0.00142726
0.00189693
0.00227813
0.00228567
0.00175198
1.06109e-10
2.36991e-08
6.73062e-07
5.26606e-06
1.6461e-05
3.29654e-05
5.51938e-05
8.3104e-05
0.000117605
0.000159696
0.00021073
0.000272271
0.000346325
0.000435555
0.000543928
0.000678126
0.000850525
0.00108505
0.00142487
0.00190082
0.00228006
0.00228358
0.00179471
1.08312e-10
2.40317e-08
6.79918e-07
5.29824e-06
1.65159e-05
3.30212e-05
5.52356e-05
8.31025e-05
0.000117552
0.000159596
0.000210571
0.000272021
0.000345972
0.000435061
0.000543249
0.00067719
0.000849222
0.0010834
0.00142314
0.0019035
0.00228249
0.00228724
0.00179803
1.07487e-10
2.39398e-08
6.79416e-07
5.30648e-06
1.65261e-05
3.30324e-05
5.52381e-05
8.30812e-05
0.000117501
0.000159503
0.000210397
0.000271796
0.000345635
0.000434562
0.00054259
0.000676292
0.000848159
0.00108234
0.00142216
0.00190124
0.00227484
0.00226498
0.00181173
1.07011e-10
2.39339e-08
6.82632e-07
5.32572e-06
1.65613e-05
3.30859e-05
5.52681e-05
8.30669e-05
0.000117447
0.000159426
0.000210264
0.000271556
0.000345271
0.000434044
0.000541878
0.000675453
0.000847237
0.00108114
0.00142024
0.0019044
0.00227932
0.00225746
0.00181561
1.07387e-10
2.41088e-08
6.86872e-07
5.33606e-06
1.65882e-05
3.31153e-05
5.52677e-05
8.30786e-05
0.00011746
0.000159384
0.000210145
0.000271348
0.000344932
0.00043352
0.000541137
0.000674544
0.000846029
0.0010792
0.00141678
0.00191044
0.00229027
0.00226218
0.00168778
1.07867e-10
2.42121e-08
6.90719e-07
5.36141e-06
1.66172e-05
3.31293e-05
5.5291e-05
8.31139e-05
0.000117474
0.000159379
0.000210095
0.000271174
0.00034458
0.000432971
0.0005404
0.000673533
0.000844602
0.00107701
0.00141382
0.00191213
0.00228498
0.00225038
0.00178285
1.07189e-10
2.41869e-08
6.94564e-07
5.38708e-06
1.6647e-05
3.31591e-05
5.53314e-05
8.31571e-05
0.000117515
0.000159396
0.000210044
0.000271015
0.000344246
0.000432417
0.000539581
0.000672408
0.000843136
0.00107543
0.00141291
0.0019182
0.00229529
0.00225706
0.00175118
1.07859e-10
2.43304e-08
6.98062e-07
5.40574e-06
1.66879e-05
3.32357e-05
5.54269e-05
8.32566e-05
0.000117618
0.000159468
0.000210038
0.000270883
0.00034392
0.000431837
0.000538676
0.000671181
0.000841804
0.00107429
0.00141209
0.00191206
0.00228942
0.00224451
0.00177755
1.10037e-10
2.46796e-08
7.02553e-07
5.42617e-06
1.67512e-05
3.33745e-05
5.55664e-05
8.33787e-05
0.00011771
0.000159501
0.000209964
0.000270622
0.000343457
0.000431129
0.000537676
0.000669901
0.000840204
0.0010722
0.00140893
0.00190576
0.00226613
0.00216241
0.00169386
1.1194e-10
2.49708e-08
7.05592e-07
5.44112e-06
1.68016e-05
3.34059e-05
5.56405e-05
8.34056e-05
0.000117649
0.000159316
0.000209636
0.00027011
0.000342703
0.000430075
0.000536306
0.000668118
0.000837721
0.00106843
0.00140354
0.00190886
0.00233207
0.0022243
0.0015755
1.12214e-10
2.5018e-08
7.0729e-07
5.4527e-06
1.68126e-05
3.33803e-05
5.55861e-05
8.33036e-05
0.000117471
0.000159038
0.000209196
0.000269469
0.000341835
0.000428992
0.00053496
0.000666332
0.000835187
0.00106501
0.0013993
0.00190356
0.00233059
0.00229482
0.0017096
1.13023e-10
2.51674e-08
7.11382e-07
5.474e-06
1.6852e-05
3.34613e-05
5.56316e-05
8.33308e-05
0.000117438
0.000158904
0.000208946
0.000269068
0.00034124
0.000428168
0.000533878
0.000664961
0.000833666
0.00106374
0.00139864
0.00190378
0.00231157
0.00224763
0.00163018
1.13227e-10
2.5238e-08
7.12874e-07
5.48484e-06
1.68669e-05
3.34539e-05
5.56521e-05
8.33094e-05
0.000117331
0.00015867
0.000208526
0.000268439
0.000340422
0.00042708
0.00053249
0.000663301
0.000831759
0.0010614
0.00139495
0.00189766
0.00232805
0.00226512
0.00156712
1.12321e-10
2.51447e-08
7.14072e-07
5.49237e-06
1.6878e-05
3.34373e-05
5.55994e-05
8.32128e-05
0.000117137
0.00015835
0.00020806
0.000267808
0.000339573
0.000426014
0.000531209
0.000661793
0.000829804
0.00105812
0.00138905
0.00188821
0.00233483
0.00227557
0.00164228
1.11182e-10
2.50597e-08
7.14054e-07
5.4915e-06
1.68905e-05
3.34204e-05
5.55575e-05
8.31041e-05
0.000116938
0.000158019
0.000207594
0.000267196
0.000338768
0.000425021
0.000530041
0.000660341
0.000827714
0.00105487
0.00138468
0.00188338
0.00234929
0.00231183
0.00163592
1.14523e-10
2.55129e-08
7.20774e-07
5.52755e-06
1.69219e-05
3.34241e-05
5.55596e-05
8.30518e-05
0.000116831
0.00015782
0.000207291
0.000266763
0.000338188
0.00042431
0.000529208
0.000659326
0.00082652
0.001054
0.00138543
0.00188713
0.00231779
0.00227695
0.00162909
1.16849e-10
2.585e-08
7.26898e-07
5.55927e-06
1.69544e-05
3.3469e-05
5.55747e-05
8.30299e-05
0.00011675
0.000157666
0.000207027
0.000266366
0.000337721
0.000423796
0.000528633
0.000658743
0.000826175
0.00105461
0.00138808
0.00189236
0.0023009
0.00225063
0.0015955
1.17258e-10
2.59333e-08
7.28862e-07
5.56919e-06
1.69719e-05
3.34732e-05
5.55655e-05
8.2965e-05
0.000116609
0.000157452
0.000206711
0.000265964
0.000337268
0.000423326
0.000528161
0.000658326
0.000825932
0.0010546
0.00138777
0.00188995
0.00231205
0.00227227
0.00171046
1.19045e-10
2.61818e-08
7.31696e-07
5.57968e-06
1.69919e-05
3.34669e-05
5.5519e-05
8.28779e-05
0.000116451
0.000157229
0.000206432
0.000265656
0.000336926
0.000423004
0.000527928
0.000658142
0.000825665
0.00105371
0.00138456
0.00188129
0.00231689
0.00228767
0.00163292
1.17552e-10
2.59979e-08
7.29324e-07
5.56238e-06
1.69725e-05
3.34309e-05
5.54318e-05
8.27397e-05
0.000116277
0.000157024
0.000206217
0.000265457
0.000336762
0.000422888
0.000527845
0.000658073
0.00082536
0.00105231
0.00138037
0.00187199
0.00231054
0.0022876
0.00166705
1.16095e-10
2.58449e-08
7.27438e-07
5.55525e-06
1.69607e-05
3.33994e-05
5.5381e-05
8.26469e-05
0.000116177
0.000156919
0.000206102
0.000265341
0.000336691
0.000422877
0.000527906
0.000658129
0.000825167
0.00105131
0.00137804
0.00186835
0.0023012
0.00228182
0.00175508
1.14848e-10
2.56362e-08
7.24246e-07
5.55026e-06
1.69484e-05
3.33637e-05
5.53479e-05
8.26254e-05
0.000116138
0.000156875
0.000206073
0.00026536
0.000336783
0.000423055
0.000528159
0.000658376
0.000825271
0.0010514
0.00137898
0.00187176
0.00230405
0.00228491
0.00168801
1.13718e-10
2.55147e-08
7.24855e-07
5.5494e-06
1.69535e-05
3.33757e-05
5.53626e-05
8.26282e-05
0.000116141
0.000156896
0.000206127
0.000265443
0.000336927
0.000423297
0.000528476
0.000658741
0.000825817
0.00105268
0.00138193
0.00187641
0.00230403
0.0022888
0.0017649
1.15287e-10
2.57263e-08
7.27598e-07
5.5592e-06
1.69629e-05
3.33711e-05
5.53905e-05
8.26565e-05
0.000116182
0.000156933
0.000206184
0.000265574
0.000337151
0.000423611
0.000528856
0.000659213
0.000826569
0.00105395
0.00138324
0.00187548
0.00230728
0.00229531
0.00178645
1.16845e-10
2.59242e-08
7.30875e-07
5.57564e-06
1.69623e-05
3.33752e-05
5.53977e-05
8.26501e-05
0.000116189
0.000156991
0.000206299
0.00026578
0.000337438
0.000423915
0.000529168
0.000659599
0.00082702
0.00105405
0.00138173
0.00187034
0.00230233
0.00228581
0.00181226
1.17062e-10
2.61132e-08
7.34495e-07
5.58005e-06
1.69854e-05
3.34117e-05
5.54592e-05
8.27383e-05
0.000116281
0.00015712
0.000206485
0.000266018
0.000337713
0.000424219
0.000529489
0.000659926
0.000827174
0.00105361
0.00138066
0.00186883
0.00230386
0.0022757
0.0017603
1.18847e-10
2.63653e-08
7.37141e-07
5.59263e-06
1.70149e-05
3.34461e-05
5.55065e-05
8.28183e-05
0.000116388
0.00015727
0.000206707
0.000266317
0.000338033
0.000424564
0.000529835
0.000660219
0.000827391
0.00105406
0.00138228
0.00187298
0.00231736
0.00229091
0.00170602
1.20727e-10
2.66101e-08
7.39751e-07
5.60479e-06
1.70295e-05
3.34722e-05
5.55562e-05
8.28976e-05
0.000116522
0.000157477
0.000207003
0.000266675
0.00033844
0.000424992
0.00053026
0.000660724
0.00082819
0.00105561
0.00138514
0.00187761
0.00231746
0.00229742
0.00173937
1.21048e-10
2.66843e-08
7.40389e-07
5.61129e-06
1.70529e-05
3.35176e-05
5.56466e-05
8.30451e-05
0.000116742
0.000157769
0.000207357
0.000267067
0.000338876
0.000425461
0.000530798
0.000661431
0.000829188
0.0010568
0.0013858
0.00187752
0.00230996
0.00229205
0.00167898
1.21386e-10
2.6761e-08
7.42414e-07
5.63027e-06
1.70988e-05
3.35912e-05
5.57561e-05
8.32037e-05
0.000116978
0.000158059
0.000207701
0.000267418
0.000339228
0.000425813
0.000531204
0.000661967
0.00082978
0.00105682
0.00138436
0.00187416
0.00230201
0.00228246
0.00174478
1.20203e-10
2.66466e-08
7.44752e-07
5.6452e-06
1.71286e-05
3.36635e-05
5.58794e-05
8.3367e-05
0.00011721
0.000158345
0.000207992
0.000267712
0.000339505
0.000426149
0.000531627
0.00066242
0.000830119
0.00105686
0.00138396
0.00187294
0.00231144
0.0022928
0.00170337
1.1899e-10
2.65507e-08
7.46119e-07
5.65223e-06
1.71532e-05
3.37295e-05
5.60199e-05
8.35647e-05
0.000117439
0.000158584
0.000208227
0.000267969
0.000339824
0.000426544
0.000532163
0.000663103
0.000830993
0.00105827
0.00138626
0.00187553
0.00231671
0.00231323
0.00167289
1.19488e-10
2.65931e-08
7.47697e-07
5.66826e-06
1.72023e-05
3.38205e-05
5.61521e-05
8.37129e-05
0.000117589
0.000158748
0.000208452
0.000268278
0.000340286
0.000427217
0.000533008
0.000664051
0.000832131
0.0010598
0.00138828
0.0018778
0.00230312
0.00230353
0.00182158
1.19797e-10
2.65937e-08
7.48951e-07
5.68563e-06
1.72381e-05
3.38544e-05
5.62391e-05
8.3828e-05
0.000117724
0.000158927
0.000208675
0.000268561
0.000340631
0.000427539
0.000533225
0.000664106
0.000831914
0.00105904
0.00138672
0.0018758
0.00233038
0.00231696
0.00174727
1.20207e-10
2.66941e-08
7.49885e-07
5.69528e-06
1.72571e-05
3.38508e-05
5.62371e-05
8.39239e-05
0.000117823
0.00015901
0.000208735
0.000268559
0.000340475
0.00042716
0.000532605
0.000663243
0.000830738
0.0010575
0.00138478
0.00187289
0.00234913
0.00235902
0.001701
1.20256e-10
2.67651e-08
7.51546e-07
5.70413e-06
1.72361e-05
3.37841e-05
5.6143e-05
8.39929e-05
0.000117869
0.000159014
0.000208631
0.000268324
0.00034012
0.000426732
0.000532155
0.000662842
0.000830475
0.00105765
0.00138597
0.00187446
0.00231586
0.00232856
0.00168548
3.25305e-10
7.19403e-08
1.86529e-06
1.14106e-05
2.90444e-05
5.48441e-05
8.83616e-05
0.000131282
0.000185305
0.000252369
0.000334527
0.000433945
0.000552873
0.000693854
0.000860547
0.00105951
0.00130372
0.0016116
0.00202802
0.00261212
0.00340346
0.00422788
0.00397365
3.30617e-10
7.33717e-08
1.90248e-06
1.15887e-05
2.93966e-05
5.5406e-05
8.91489e-05
0.000132419
0.000186864
0.000254436
0.000337186
0.000437285
0.000556989
0.000698908
0.000866666
0.00106639
0.00130992
0.00162273
0.00204403
0.00263426
0.00344062
0.00430405
0.00421768
3.38246e-10
7.52058e-08
1.94244e-06
1.17482e-05
2.96941e-05
5.58604e-05
8.98364e-05
0.000133354
0.000188103
0.000256057
0.000339306
0.000439973
0.000560326
0.000702879
0.000870988
0.00107035
0.00131323
0.00162813
0.00204996
0.00263392
0.00341761
0.00426779
0.00442578
3.50661e-10
7.74157e-08
1.9821e-06
1.19003e-05
2.99829e-05
5.62995e-05
9.04896e-05
0.000134274
0.000189376
0.000257724
0.00034143
0.000442607
0.000563493
0.000706448
0.000874683
0.00107435
0.00131997
0.00163525
0.00205218
0.00263
0.00339393
0.00418963
0.00445175
3.55312e-10
7.85836e-08
2.01256e-06
1.20368e-05
3.02597e-05
5.67203e-05
9.11128e-05
0.000135159
0.000190559
0.000259292
0.000343381
0.000444956
0.000566155
0.000709321
0.000877974
0.00107926
0.00132878
0.0016401
0.00205736
0.00263351
0.00339288
0.00418678
0.00437534
3.629e-10
8.01922e-08
2.05075e-06
1.21829e-05
3.05326e-05
5.71553e-05
9.17312e-05
0.000136043
0.000191728
0.000260755
0.000345155
0.000446992
0.000568395
0.000711874
0.00088137
0.00108415
0.00133336
0.0016455
0.00206635
0.00264321
0.00339793
0.00417743
0.00399107
3.74192e-10
8.23279e-08
2.09056e-06
1.23476e-05
3.0842e-05
5.75906e-05
9.2345e-05
0.000136873
0.000192768
0.00026201
0.000346611
0.00044862
0.00057022
0.000714038
0.000883898
0.00108609
0.00133231
0.00164834
0.00207899
0.00265987
0.00340532
0.00417868
0.00415824
3.8539e-10
8.43475e-08
2.12646e-06
1.24919e-05
3.1107e-05
5.80079e-05
9.29419e-05
0.000137638
0.000193697
0.000263092
0.00034782
0.00044994
0.000571679
0.000715594
0.000885013
0.00108541
0.00132889
0.00164618
0.00208755
0.00266882
0.00339928
0.004149
0.0045409
3.9275e-10
8.60313e-08
2.1647e-06
1.26253e-05
3.13446e-05
5.83705e-05
9.34329e-05
0.000138249
0.000194428
0.000263889
0.000348663
0.000450814
0.000572551
0.000716225
0.000885002
0.00108514
0.001332
0.00166109
0.00209381
0.00267634
0.00340299
0.00410692
0.00436191
3.94589e-10
8.70114e-08
2.19291e-06
1.27326e-05
3.15226e-05
5.86586e-05
9.38154e-05
0.000138702
0.000194933
0.000264417
0.000349154
0.000451268
0.000572844
0.000716217
0.000885069
0.00108708
0.00133934
0.00166622
0.00210205
0.0026913
0.00342152
0.00413397
0.00439438
1.21324e-10
2.70203e-08
7.5963e-07
5.76258e-06
1.73457e-05
3.40063e-05
5.65276e-05
8.4177e-05
0.000118135
0.000159375
0.000209144
0.000268981
0.000340857
0.000427376
0.000532264
0.000661685
0.000827139
0.00105155
0.00137816
0.0018701
0.00231691
0.00235227
0.00185533
1.23211e-10
2.74252e-08
7.6827e-07
5.79785e-06
1.73946e-05
3.40742e-05
5.66176e-05
8.42756e-05
0.000118261
0.00015954
0.000209327
0.000269205
0.000341103
0.000427539
0.000532272
0.000661517
0.000826813
0.00105108
0.00137747
0.00186892
0.00230957
0.00234008
0.00191049
1.23738e-10
2.76849e-08
7.75069e-07
5.8169e-06
1.74519e-05
3.41728e-05
5.66891e-05
8.43874e-05
0.000118401
0.000159707
0.000209515
0.000269378
0.000341242
0.00042764
0.000532262
0.000661315