/*--------------------------------*- C++ -*----------------------------------*\
  =========                 |
  \\      /  F ield         | OpenFOAM: The Open Source CFD Toolbox
   \\    /   O peration     | Website:  https://openfoam.org
    \\  /    A nd           | Version:  10
     \\/     M anipulation  |
\*---------------------------------------------------------------------------*/
FoamFile
{
    format      ascii;
    class       volScalarField;
    location    "491";
    object      omega;
}
// * * * * * * * * * * * * * * * * * * * * * * * * * * * * * * * * * * * * * //

dimensions      [0 0 -1 0 0 0 0];

internalField   nonuniform List<scalar> 
96890
(
1.25079e+07
1.94053e+06
591123
282486
172154
115063
81082.4
59504
45084.9
35002.2
27680.9
22209.8
18020.4
14738.1
12111.1
9960
8149.13
6575.79
5180.52
3960.97
2964.22
2259.37
2072.84
1.24752e+07
1.99928e+06
696575
361525
216249
140665
97450.2
70720.1
53065.6
40813.8
31967.3
25380.8
20343.6
16384.5
13173.8
10475.3
8148.85
6168.45
4598.84
3458.06
2674.27
2212.54
2141.3
1.24518e+07
1.9971e+06
696546
361759
216526
140865
97591.9
70820
53147
40874.5
32013
25413.1
20361.9
16389
13164.3
10454.4
8124.58
6149.22
4580.07
3416.35
2607.94
2196.62
2137.05
1.2437e+07
1.93312e+06
578731
265636
157716
104676
74023.3
54893
42174.5
33239.9
26683.9
21710.1
17833.6
14743.5
12239.7
10167.1
8407.72
6880.82
5530
4344.77
3359.58
2642.88
2381.13
1.248e+07
2.18886e+06
610645
226575
123201
84956.6
67088.7
57284.2
50200.1
44210.1
39300.1
35144.9
31649.2
28696.7
26080.6
23721.1
21608.7
19697.4
17948.5
16346.2
14868.5
13556.7
12263.7
1.24434e+07
1.93379e+06
581038
269976
162699
108924
77173.7
57038.8
43550.8
34084.4
27174.3
21971.5
17952.3
14778
12220
10115.5
8339.8
6797.26
5433.6
4243.92
3268.31
2574.54
2355.7
1.24433e+07
1.93348e+06
579849
267966
160712
107422
76124.5
56345
43111.8
33810
27004.3
21869.2
17892.8
14746.9
12208.5
10118.5
8355.69
6825.47
5470.52
4287.3
3316.96
2626.88
2403.52
1.24381e+07
1.93621e+06
588230
278989
169475
113255
79878
58720.8
44586.9
34702.5
27518.1
22132.3
17990.2
14736.8
12129.1
9991.02
8190.17
6625.42
5238.84
4028.57
3037.47
2330.93
2133.41
1.24379e+07
1.93578e+06
587077
277392
168125
112361
79257.1
58284.7
44275.3
34483.1
27367.9
22033.5
17930.2
14703.8
12113.5
9987.73
8196.14
6638.95
5259.18
4055.19
3071.21
2375.12
2183
1.24316e+07
1.93471e+06
585959
276058
167069
111632
78747
57936.8
44032
34308.8
27244.6
21950.1
17877.5
14672.1
12097.7
9983.73
8200.35
6650.5
5278.39
4082.88
3107.75
2421.93
2234.58
1.24315e+07
1.93429e+06
584838
274733
166061
110979
78345.8
57670.9
43854.6
34192.2
27169.5
21904.5
17852.1
14661.9
12098.5
9992.27
8214.79
6670.13
5304.19
4115.96
3148.37
2469.16
2278.66
1.24375e+07
1.93467e+06
583727
273244
165035
110325
77950.6
57425
43702.6
34104.7
27122.9
21884.3
17849
14670.5
12115.1
10014.3
8240.27
6699.09
5337.39
4153.84
3190.54
2515.56
2333.01
1.24374e+07
1.93414e+06
582482
271635
163793
109502
77436.4
57117
43527.3
34004.7
27068.9
21860.6
17844.5
14678.6
12131.9
10037.3
8267.92
6730.94
5374.61
4197.81
3241.92
2572.12
2387.28
1.24321e+07
1.93597e+06
589107
280206
170266
113662
80104.3
58852.4
44651.2
34718.1
27499.3
22093.9
17945.3
14691.8
12086
9951.7
8154.14
6592.21
5209.86
4005.94
3021.77
2323.4
2136.97
1.27035e+07
1.93219e+06
580301
266375
154450
99737.1
69256.4
50942.7
39127.7
30980.8
25006
20447.6
16878.7
14034.6
11707.5
9767.71
8149.21
6722.79
5435.14
4298.82
3353.85
2670.96
2440.2
1.24261e+07
1.93538e+06
589611
280878
170756
114004
80332.8
58995.7
44727.2
34747.7
27503.7
22086.1
17932.8
14677.7
12071.7
9936.71
8137.97
6575.04
5190.76
3984.48
3000.26
2307.48
2121.65
1.25783e+07
1.95455e+06
600641
291138
177883
118510
83118
60716.5
45777.6
35379
27866.3
22273
18007
14681.7
12032.9
9871.46
8054.51
6475.86
5074.27
3849.85
2860.25
2185.8
2036.24
1.25049e+07
1.94073e+06
592118
283838
173002
115547
81353.7
59654.5
45151.8
35022.8
27677.5
22193.9
17998.4
14713.2
12085.9
9934.88
8125.12
6554.08
5161.86
3947.6
2959.61
2260.9
2055.45
1.24204e+07
1.93613e+06
592526
284731
173653
115892
81531.6
59755.5
45199.1
35039.8
27679.6
22187.8
17985.7
14696.4
12067.2
9916.35
8107.56
6537.58
5147.2
3934.91
2949.5
2255.15
2043.84
1.24206e+07
1.93615e+06
593330
285667
174312
116279
81757.3
59869.2
45262.9
35072.5
27693.9
22191.1
17979.7
14685.3
12054.2
9903.27
8095.23
6526.89
5138.1
3926.63
2940.21
2250.23
2044.87
1.24207e+07
1.93657e+06
594166
286576
174876
116597
81931.2
59958.8
45315.2
35104.6
27712.8
22196.5
17976.2
14678.1
12045.7
9894.19
8085.54
6516.47
5126.55
3914.24
2928.32
2243.87
2037.71
1.25014e+07
1.94171e+06
596001
287389
175294
116836
82069.7
60065.3
45389.3
35152.2
27736.9
22205.1
17976.5
14672.9
12037.9
9884.53
8073.35
6501.33
5108.64
3895.91
2915.08
2238.25
2042.8
1.25046e+07
1.9417e+06
596477
287736
175704
117160
82326.1
60256.4
45514.3
35226.8
27775.3
22222.5
17980.5
14670.4
12030.9
9874.46
8060.09
6485.19
5091.58
3881.65
2906.94
2235.46
2058.49
1.24213e+07
1.93698e+06
596421
288342
176336
117659
82671.4
60464.6
45631.5
35280
27795.6
22224.6
17973.7
14659.1
12017.6
9860.51
8046.02
6472.18
5082.55
3877.42
2905.5
2235.27
2077.42
1.24215e+07
1.93739e+06
597294
289494
177109
118122
82874.8
60529.8
45628.2
35250.3
27757.3
22183.7
17937.2
14628.7
11993
9841.59
8033.16
6465.32
5081.21
3877.98
2904.67
2235.1
2077.44
1.25011e+07
1.9461e+06
598629
290205
177230
118056
82762.9
60418.7
45532
35181.4
27711.6
22154
17918.2
14616.6
11986
9837.43
8031.1
6464.03
5077.3
3869.97
2894.67
2230.7
2070.61
1.2548e+07
1.95461e+06
608355
299450
183692
122427
85827.4
62574
47069.9
36277.6
28486
22705.3
18310.9
14897.8
12187
9976.41
8115.23
6495.26
5060.3
3817.85
2828.52
2154.04
1986.65
1.24857e+07
1.94834e+06
607780
299593
183830
122497
85871.9
62580.8
47061.1
36259.4
28467.3
22688
18296
14885.1
12176.7
9969.38
8111.14
6492.34
5057.18
3815.87
2829.4
2156.88
1980.11
1.2578e+07
1.95425e+06
600836
291244
178089
118694
83249.7
60803.1
45832.1
35405
27874.4
22272.8
18001.3
14673.7
12024.6
9863.17
8045.05
6463.91
5060.65
3837.88
2854.72
2184.99
2038.35
1.24981e+07
1.94604e+06
599837
291585
178422
118947
83436.7
60933.6
45927.7
35469.2
27916
22300.5
18021.5
14688.2
12034.7
9869.42
8048.45
6466.1
5062.51
3840.15
2856.74
2183.15
2024.64
1.24162e+07
1.9378e+06
598864
291896
178745
119142
83544.9
61006.2
45974.3
35500.1
27934.3
22311.3
18026.6
14690.1
12033.9
9868.07
8048.73
6468.9
5065.94
3842.79
2857.93
2182.38
2019.95
1.25133e+07
1.9446e+06
600553
292519
179202
119438
83720.3
61109.5
46041.6
35544
27964.5
22330.8
18038.7
14696.2
12038.2
9872.85
8053.82
6471.28
5064.5
3840.24
2856.19
2181.06
2013.21
1.25353e+07
1.94684e+06
601260
293158
179526
119600
83841.7
61187.7
46091.5
35573.9
27984.1
22342.9
18046.6
14702
12042.3
9875.04
8052.27
6465.38
5057.76
3836.22
2855.01
2181.12
2009.99
1.24699e+07
1.94393e+06
601229
293647
179822
119778
83966.4
61267.7
46139.2
35608.7
28004.2
22354
18054.3
14707.3
12045.3
9874.11
8048.53
6463.33
5061.16
3843.27
2861.14
2183.32
2015.65
1.24733e+07
1.94427e+06
602271
294113
180061
119965
84077.1
61341.8
46191.5
35646.3
28029.8
22370.1
18063.5
14712.3
12047.4
9874.76
8052.39
6474.04
5075.33
3854.52
2866.68
2184.08
2020.13
1.23926e+07
1.93615e+06
601936
294229
180277
120155
84211.9
61429.2
46247.6
35681
28054.6
22388.6
18076.9
14720.9
12054
9883.05
8064.5
6485.41
5078.48
3849.1
2859.86
2181.09
2017.91
1.23319e+07
1.92994e+06
601767
294419
180452
120290
84306.6
61496.9
46294.8
35712
28073.7
22402.4
18086.6
14729.8
12062.2
9891.78
8068.6
6476.99
5057.8
3826.25
2845.78
2176.95
2011.25
1.23321e+07
1.93011e+06
602159
294825
180666
120436
84395.4
61549.7
46330.1
35738.2
28095.2
22419.4
18099.3
14740.5
12070.7
9893.47
8058.9
6456.86
5036.79
3813.9
2843.3
2178.32
2013.89
1.24082e+07
1.9382e+06
603235
295462
180982
120601
84512.7
61627.7
46380.9
35770.9
28121.8
22440.2
18115.5
14752.4
12076.4
9890.95
8050.74
6452.34
5042.65
3828.39
2857.35
2184.49
2012.97
1.2488e+07
1.94673e+06
603772
295890
181282
120715
84601
61698.5
46432.7
35810.5
28149
22459.9
18130.9
14761.4
12079.5
9892.06
8057.14
6468.4
5063.98
3846.14
2867.83
2189.53
2030.24
1.24115e+07
1.93899e+06
603451
295946
181427
120843
84672.6
61751.9
46481.4
35849.9
28178.7
22482.7
18146.4
14771.4
12087.5
9903.07
8072.95
6483.51
5069.86
3840.79
2860.01
2187.8
2029.99
1.24696e+07
1.94506e+06
604836
296550
181720
121027
84770.9
61815.3
46535.3
35895.5
28210.8
22505.9
18162.3
14784.1
12100
9915.97
8081.16
6479.49
5053.55
3818.81
2842.54
2183.61
2043.05
1.25352e+07
1.95203e+06
605645
297017
181929
121172
84905.3
61919.6
46602.3
35942.8
28248.2
22533.5
18183.1
14801.4
12114.5
9923.38
8077.5
6467.46
5040.43
3809.47
2835.81
2181.79
2043.09
1.2456e+07
1.94126e+06
605135
297174
182057
121303
85051.2
62033.4
46678.8
35993.9
28288.2
22563.1
18205.6
14817.8
12123.9
9925.33
8074.37
6466.49
5047.21
3821.45
2844.47
2186.25
2056.82
1.23946e+07
1.93523e+06
604542
297310
182278
121437
85145.1
62097.9
46724.8
36028.3
28315.4
22585.8
18221.5
14826.5
12126.6
9926.05
8078
6475.89
5060.1
3833.56
2853.8
2190.7
2050.39
1.23338e+07
1.93177e+06
604062
297385
182397
121509
85184.1
62127.5
46753.6
36052.4
28329.2
22591.4
18222.5
14823
12122.5
9924.65
8079.63
6476.79
5056.28
3827.07
2850.1
2190.32
2049.58
1.23951e+07
1.93814e+06
605359
297691
182508
121600
85260.8
62183.9
46793.3
36075.8
28335.7
22585.2
18211.2
14811.6
12114.8
9920.8
8075.48
6467.52
5042.98
3814.83
2842.71
2188.14
2056.46
1.23953e+07
1.93834e+06
605582
298095
182759
121764
85366.6
62238.7
46810.2
36072.6
28320.5
22566.6
18195.3
14803.2
12111.6
9919.04
8072.24
6462.94
5040.04
3814.5
2843.98
2190.35
2056.4
1.24697e+07
1.94614e+06
606429
298507
182998
121887
85401
62250.6
46819.4
36078.3
28331.2
22584.6
18217.8
14827.4
12133.9
9936.04
8084.19
6472.84
5049.57
3823.4
2850.59
2193.51
2035.69
1.24803e+07
1.94712e+06
616086
307464
188723
125649
88052.5
64208.2
48276.9
37173.7
29170.5
23234.1
18728.5
15235.2
12465.5
10213
8321.96
6674.87
5206.12
3933.84
2924.64
2195.55
1999.79
1.24803e+07
1.94991e+06
616987
307836
188890
125678
88059.2
64191.1
48253.6
37150.2
29147.8
23214.7
18713.1
15223.4
12457.4
10208
8319.29
6673.78
5207.73
3939.73
2933.03
2202.8
1996.38
1.24802e+07
1.95568e+06
618041
308316
189035
125752
88120.4
64217.2
48266
37159.3
29155
23222.9
18721.4
15230.8
12464.7
10215.3
8326.62
6682.89
5219.08
3952.34
2943.51
2206.16
1992.34
1.24802e+07
1.95579e+06
618249
308498
189064
125768
88133.5
64216.8
48263.2
37158.5
29155.3
23224.5
18724.5
15234.6
12468.7
10220.1
8333.61
6692.33
5229.18
3961.22
2949.92
2208.5
1993.05
1.25424e+07
1.95945e+06
619286
308753
189187
125838
88143
64212.5
48261.3
37159.7
29159.9
23230.6
18729.4
15239.6
12473.5
10226.2
8340.8
6698.29
5231.23
3958.86
2946.37
2206.76
1991
1.24733e+07
1.94719e+06
607850
300000
184061
122618
85919.2
62620.1
47079.2
36270.3
28477.9
22696.2
18302.7
14891.6
12183.3
9975.13
8114.2
6490.56
5051.85
3809.57
2824.26
2153.96
1977.3
1.247e+07
1.947e+06
608796
300399
184275
122756
85977.1
62653.2
47102.2
36288.2
28492
22707.4
18312.2
14899.4
12189.3
9978.43
8113.96
6488.33
5049.93
3809
2824.52
2153.53
1972.16
1.24851e+07
1.94876e+06
608810
300519
184352
122786
86015.6
62676
47123.1
36307.4
28506.3
22719.1
18321.9
14906.6
12193.8
9980.93
8115.58
6490.38
5052.79
3811.59
2826.11
2153.89
1971.49
1.24849e+07
1.94897e+06
608480
300712
184502
122876
86075.9
62718.2
47154
36330.3
28522.1
22730.7
18331.2
14914.6
12200.4
9986.2
8120.69
6494.81
5055.42
3812.77
2826.84
2154.09
1967.29
1.25469e+07
1.95541e+06
609796
301075
184700
122998
86150.7
62770.4
47193.1
36357
28544.1
22747.8
18344.7
14925.5
12208.8
9992.93
8125.11
6496.6
5055.1
3811.94
2826.91
2154.94
1971.26
1.25467e+07
1.9556e+06
610695
301398
184837
123124
86236.2
62838.1
47242.8
36388.6
28567.7
22766.8
18359.2
14936.9
12217.2
9998.3
8128.1
6497.73
5055.95
3813.6
2829.03
2155.79
1969.28
1.25466e+07
1.95285e+06
611443
301871
185048
123240
86309.8
62885.2
47281.1
36418.4
28587.2
22782.9
18370.8
14945
12222.8
10001.6
8130.14
6499.99
5059.26
3817.32
2832.01
2157.34
1974.04
1.24733e+07
1.94861e+06
610584
301921
185208
123348
86406.9
62945.6
47315
36446.6
28608.9
22796.6
18380.9
14951.9
12228.1
10006.2
8135.08
6505.55
5064.09
3820.88
2834.67
2158.34
1972.18
1.24086e+07
1.94503e+06
609944
302060
185309
123408
86451.1
62986
47349.4
36471.2
28625.3
22809.2
18390.7
14960.2
12235.4
10013.1
8141.68
6510.62
5066.49
3821.55
2835.49
2159.83
1976.09
1.24737e+07
1.9515e+06
611340
302470
185565
123550
86535.8
63043.1
47384.6
36493
28643.2
22820.6
18399.7
14968.2
12241.7
10018.7
8145.48
6511.71
5065.65
3820.6
2835.75
2161.06
1979.11
1.25325e+07
1.95544e+06
612005
302790
185700
123616
86578.1
63088
47420.5
36515
28658.2
22832.8
18409.4
14975.9
12247.8
10022.2
8146.62
6512.39
5066.94
3822.93
2838.85
2163.2
1989.42
1.25458e+07
1.95359e+06
612259
303199
185889
123760
86688.5
63141.1
47443.2
36532.1
28672.5
22843.8
18418.1
14982.8
12253.2
10025.4
8149.57
6516.91
5073.32
3829.53
2844.11
2164.7
1985.17
1.25457e+07
1.95369e+06
611944
303257
186073
123899
86762.9
63168.2
47459.9
36541.6
28679
22851.7
18426.2
14989.1
12256.7
10028.3
8153.45
6522.55
5077.91
3831.3
2844.23
2164.26
1981.04
1.26083e+07
1.95767e+06
612039
303387
186215
123970
86788.2
63178.9
47466.3
36548.1
28686.7
22858.9
18432.5
14993.6
12259.7
10030.6
8155.99
6523.73
5074.75
3824.53
2838.43
2164.06
1989.99
1.26081e+07
1.95792e+06
612424
303644
186261
123925
86741.5
63158.5
47457.2
36546.8
28690.1
22863
18436.2
14996.5
12262.2
10032.3
8155.4
6520.93
5070.57
3819.93
2836.47
2165.42
1995.51
1.25452e+07
1.95424e+06
612742
303736
186121
123784
86676.4
63151
47465.6
36556.8
28698.9
22872.3
18442.8
15000.4
12263.9
10031.7
8154
6520.72
5072.92
3825.41
2843.33
2168.9
2018.49
1.24829e+07
1.95029e+06
612937
303963
186231
123873
86734.8
63202.6
47512.9
36597.5
28730.2
22895.3
18459.8
15013.2
12272.7
10038.1
8160.22
6529.32
5083.07
3836.96
2852.47
2169.57
2025.06
1.24743e+07
1.94986e+06
612552
303976
186326
123998
86842.9
63285.5
47578.6
36647.6
28770.7
22927.4
18484.3
15030.2
12285.2
10049.4
8172.17
6540.82
5094.01
3845.95
2858.08
2171.72
2023.44
1.2471e+07
1.95003e+06
612721
304059
186312
123966
86857.2
63312.5
47610.4
36677.6
28792.2
22941.4
18493.4
15036.6
12290.3
10054.3
8175.83
6541.56
5091.99
3842.77
2856.07
2172.5
2027.52
1.24744e+07
1.94999e+06
612871
304229
186536
124135
86956.6
63382.1
47663.1
36716.4
28822.3
22963.2
18506.4
15046.2
12297.7
10059.5
8179.39
6545.16
5098.47
3851
2862.79
2173.37
2021.79
1.25333e+07
1.95386e+06
613391
304461
186694
124303
87097
63472.4
47727.2
36760.9
28851.3
22981.5
18519.8
15055.7
12304.8
10065.7
8187.26
6558.34
5116.23
3868.33
2874.94
2176.36
2020.01
1.26072e+07
1.95815e+06
614664
305069
186972
124468
87209.7
63545.9
47777
36797.4
28875.9
22997.1
18531.5
15064.5
12312
10074.1
8199.67
6574.64
5131.2
3878.19
2880.39
2178.43
2026.99
1.24744e+07
1.95053e+06
613125
304800
187031
124541
87231.9
63564.7
47786.6
36805.1
28880.1
22999.8
18533.9
15066.9
12315.4
10079.9
8206.97
6579.27
5129.54
3871.77
2874.15
2176.09
2017.39
1.24024e+07
1.94641e+06
612378
304668
187031
124519
87229.6
63569.5
47790.4
36805.4
28880.5
23001.1
18532.9
15065.5
12315.6
10081
8206.56
6574.13
5119.62
3861.06
2866.82
2172.92
2007.41
1.24028e+07
1.94664e+06
612579
304841
187134
124572
87261.4
63595.9
47810.6
36815.7
28887.4
23005.4
18535.4
15067.5
12318
10083.2
8207.17
6573.36
5120.18
3865.47
2873.38
2175.22
1998.91
1.23419e+07
1.94305e+06
612397
304936
187161
124623
87319.1
63629.8
47834.1
36829.2
28895
23009.7
18540.2
15072
12321.6
10086.9
8211.56
6580.4
5133.05
3884.01
2891.33
2182.31
1994.24
1.241e+07
1.94723e+06
613580
305500
187383
124715
87405.5
63686.8
47864.5
36846.1
28904.4
23014.8
18543.9
15075.8
12326.3
10092
8218.56
6592.18
5150.79
3904.97
2909.07
2189.18
1987.11
1.24816e+07
1.95155e+06
614874
305862
187527
124820
87453.9
63723.5
47882.9
36855
28910.8
23021
18549.2
15080.9
12331.2
10097.5
8225.92
6602.67
5162.7
3914.98
2915.32
2192.73
1980.69
1.25438e+07
1.95815e+06
616149
306196
187725
124967
87522.1
63748.7
47898.5
36864.9
28917.2
23024.9
18551.8
15083.3
12333.9
10101.4
8231.07
6606.99
5162.8
3910.33
2910.89
2192.08
1974.67
1.26064e+07
1.96232e+06
616719
306537
187825
124983
87531.2
63758.9
47906
36867.8
28918.3
23027.5
18555.1
15086.3
12337.3
10104.8
8232.94
6604.55
5155.78
3903.08
2908.61
2192.63
1970.79
1.25435e+07
1.95844e+06
615956
306541
187893
124992
87530.8
63755.9
47899.8
36869.6
28923.5
23031.8
18558.7
15090
12341
10107.8
8233.47
6602.68
5155.01
3907.39
2917.53
2199.75
1984.38
1.24812e+07
1.95512e+06
615229
306359
187929
124974
87528.9
63775.2
47918.9
36881.5
28932.5
23037.6
18563.9
15096.6
12347.9
10113.1
8237.76
6608.62
5165.23
3920.91
2930.34
2208.82
2001.36
1.24811e+07
1.94929e+06
615000
306455
187901
124982
87528.1
63774.3
47929.9
36891.7
28941.1
23046.7
18573.7
15105.9
12356.1
10120.3
8245.61
6618.53
5174.36
3927.19
2933.43
2214.09
2010.35
1.2414e+07
1.94521e+06
614594
306426
187878
125018
87574
63799.5
47950.2
36908.3
28953.4
23056.9
18584.7
15115.9
12365.2
10129.1
8253.86
6623.79
5173.97
3921.8
2927.78
2216.21
2011.72
1.23447e+07
1.94117e+06
614318
306496
187954
125067
87610.5
63826.1
47967.6
36920.9
28962.8
23066.4
18593.8
15124.8
12373.8
10135.9
8257.45
6622.79
5169.22
3915.61
2924.39
2221.15
2014.12
1.23449e+07
1.9412e+06
614947
306653
187991
125085
87612.5
63821.9
47964.6
36922.7
28968.9
23075.5
18602.6
15132.6
12379.8
10139.5
8258.59
6623.29
5171.84
3918.71
2929.02
2228.53
2023.94
1.23453e+07
1.94126e+06
615089
306611
187946
125073
87605.5
63825.2
47968.1
36932.5
28980.3
23088.6
18614.6
15142.9
12387.6
10144.6
8262.63
6630.01
5181.5
3928.09
2936.78
2230.73
2024.91
1.24112e+07
1.9454e+06
615077
306720
188059
125095
87609.1
63847
47986.4
36949.7
28999.4
23105.3
18629.1
15152.7
12393.8
10149.6
8268.06
6636.01
5187.04
3932.85
2938.75
2225.42
2036.36
1.24807e+07
1.94952e+06
615650
307037
188194
125113
87623.9
63861.5
48008
36973.8
29021.6
23121.2
18638.2
15157.4
12395.2
10149.6
8267.4
6633.25
5182.63
3929.82
2934.29
2218.64
2037.1
1.24806e+07
1.95238e+06
615848
307137
188152
125097
87642.4
63901.5
48051.6
37006.7
29038.2
23125.9
18633.5
15147.5
12385.3
10142.4
8261.93
6628.27
5178.55
3927.27
2932.01
2220.83
2055.78
1.24805e+07
1.95532e+06
615995
307146
188235
125232
87756.8
63973.1
48090.7
37019.6
29036.4
23116.7
18622.6
15140.6
12383.8
10145.1
8267.52
6635.99
5186.59
3932.95
2937.16
2230.55
2082.96
1.24805e+07
1.95495e+06
616598
307361
188351
125350
87843.5
63992.1
48088.8
37013.8
29030.6
23115.4
18629.3
15154.2
12400.8
10162.5
8283.88
6649.8
5197.15
3941.5
2946.23
2239.41
2062.67
1.24804e+07
1.95272e+06
616687
307344
188285
125247
87719.9
63920.1
48043.1
36987
29024.7
23123.4
18644.6
15171.1
12416
10174.2
8291.44
6652.76
5195.58
3940.4
2946.83
2237.93
2040.17
1.24259e+07
1.96618e+06
646224
328981
198894
130911
91465
66746
50277.4
38785.4
30480.8
24311.3
19620.4
15975.7
13075.6
10700.4
8687.5
6921.96
5332.44
3922.22
2826.5
2214.36
2194.05
1.24703e+07
1.96879e+06
647730
329572
199183
131076
91581
66811.7
50315.8
38805.9
30491.1
24315.1
19619.5
15969.9
13066.3
10693.7
8692.85
6941.17
5353.49
3935.72
2843.06
2229.27
2082.64
1.24737e+07
1.96778e+06
648717
330211
199484
131245
91661
66868.6
50358.6
38837.2
30510.8
24327.1
19625.7
15973.3
13072
10706.7
8710.7
6948.52
5337.57
3906.43
2813.79
2176.05
1997.43
1.24086e+07
1.96449e+06
649407
330854
199760
131395
91737.6
66911.5
50380.2
38851.5
30520.4
24333.4
19629.3
15977.5
13079
10712.1
8699.82
6909.92
5278.9
3852.91
2771.68
2144.11
1994.98
1.24552e+07
1.97002e+06
651330
331660
200046
131514
91798.2
66945.3
50404.2
38864.5
30530.3
24340.4
19636
15984.2
13080.9
10699.1
8666.17
6865.65
5246.97
3842.57
2770.07
2160.28
2041.02
1.24549e+07
1.97074e+06
651849
332183
200296
131625
91869.7
66975.5
50421
38877.3
30539.3
24348.2
19642.8
15986.1
13071.5
10679
8649.11
6874.71
5288.49
3891.31
2810.14
2211.72
2249.33
1.2412e+07
1.96884e+06
652617
332509
200364
131679
91905.4
66995.2
50440
38893.8
30553
24359
19648.4
15983.9
13064.8
10679.7
8675.17
6929.27
5347.59
3929.66
2841.17
2256.76
2171.96
1.23666e+07
1.96687e+06
653534
333025
200551
131750
91925.5
67010.3
50454.7
38907.3
30564.9
24367.4
19651.7
15984.2
13070.7
10700.5
8707.69
6948.32
5330.96
3892.13
2810.28
2198.08
2001.06
1.23669e+07
1.96584e+06
653993
333463
200728
131829
91973.1
67045.8
50480.2
38930.5
30583.2
24380.2
19660.3
15994.1
13085.6
10712.8
8695.23
6893.87
5246.17
3813.43
2748.38
2140.28
1997.43
1.24289e+07
1.96812e+06
655242
334130
201070
131984
92058.4
67107.5
50525.3
38963.8
30609.6
24398.8
19675.6
16008.4
13091.7
10697
8650.26
6834.11
5199.28
3790.4
2734.6
2138.24
1996.94
1.25423e+07
1.96233e+06
619563
308823
189273
125873
88142.8
64226
48273.4
37170
29168.6
23238.5
18737.1
15245.9
12479.8
10232.2
8345.71
6700.29
5228.95
3952.99
2940.62
2206.45
2001.51
1.248e+07
1.95329e+06
617951
308451
189179
125850
88137.6
64243.4
48292.9
37186.4
29184
23248.8
18743.5
15252.4
12486.7
10238.7
8351.16
6704.53
5232.45
3956.2
2943.33
2209.55
2007.9
1.248e+07
1.94769e+06
617148
308449
189085
125812
88163.8
64261.8
48311.4
37201.7
29194.9
23258.4
18751.8
15258.8
12492.9
10245.4
8358.7
6714.3
5243.97
3967.96
2952.98
2214.71
2026.32
1.248e+07
1.95029e+06
617845
308704
189217
125891
88213.4
64298.1
48342.5
37224.1
29210.5
23269
18760.7
15268.1
12502.2
10255.3
8370.37
6727.68
5257.44
3980.32
2962.26
2217.5
2024.34
1.24799e+07
1.95061e+06
618001
308812
189366
125998
88277.8
64348.7
48377.3
37243
29221.9
23278.7
18769.6
15276.5
12511.2
10265.7
8381.42
6737.55
5264.65
3985.06
2965.25
2217.34
2017.84
1.24799e+07
1.95303e+06
618174
308914
189459
126061
88332.8
64384
48400
37260.7
29234.8
23286.7
18776.6
15284.6
12519.9
10274.5
8388.94
6742.1
5265.92
3983.06
2961.58
2214.33
2013.51
1.24799e+07
1.95602e+06
619123
309135
189539
126100
88341.7
64388.3
48396.7
37260.6
29236.8
23290.7
18782.1
15291.1
12526.8
10280.6
8393.31
6744.12
5264.45
3978.35
2955.36
2211.08
2012.79
1.24798e+07
1.95089e+06
618554
309312
189537
126044
88296.1
64368.2
48389.1
37255
29234.2
23291.8
18785.9
15296.3
12532.3
10285.5
8397.41
6746.68
5264.18
3975.85
2952.61
2211.66
2024.95
1.24798e+07
1.95082e+06
618166
309468
189544
125994
88280.8
64356.5
48385
37255
29236.3
23296.8
18792.5
15303.1
12538.7
10291.4
8403.02
6751.88
5268.62
3980.94
2958.14
2215.79
2044.27
1.24176e+07
1.94712e+06
617876
309437
189540
126006
88293.7
64366.4
48393.2
37261
29246.2
23305.5
18800.5
15310
12545.5
10298.6
8411.1
6761.58
5281.09
3995.33
2970.33
2219.91
2043.88
1.2353e+07
1.94071e+06
617476
309353
189532
125999
88280
64360.5
48393
37271.4
29259
23317.1
18810.4
15318.2
12552.9
10306.9
8421.8
6775.36
5296.9
4010.07
2980.18
2223.55
2052.7
1.24146e+07
1.94724e+06
618117
309451
189582
126023
88284.9
64379.2
48411.7
37292.3
29275.4
23329.5
18819.1
15326.2
12561.4
10317.3
8433.91
6786.94
5304.23
4011.69
2978.46
2224.43
2061.48
1.24797e+07
1.9511e+06
618579
309511
189603
126015
88290.6
64395.7
48443.3
37315.7
29291.9
23343.9
18831.4
15337.5
12573.9
10330.3
8444.71
6791.58
5300.47
4002.11
2969.34
2225.11
2086.5
1.24797e+07
1.95357e+06
619122
309532
189738
126159
88419.9
64485.4
48507.1
37358.5
29319.1
23363.8
18848.3
15353.3
12588.9
10342.8
8452.81
6794.06
5299.38
4000.09
2967.92
2225.41
2088.9
1.24797e+07
1.95649e+06
619449
309718
189882
126302
88525.9
64563.1
48551.5
37386.8
29340.8
23381.2
18863.8
15366.7
12600.2
10352.3
8461.09
6804
5314.01
4017.4
2981.09
2227.09
2075.48
1.24797e+07
1.95143e+06
618376
309774
190021
126412
88583.7
64592.3
48565.1
37394.9
29344.1
23383.8
18868.1
15372.8
12607.2
10360.3
8473.22
6822.52
5335.97
4038.39
2994.61
2227.86
2060.88
1.24797e+07
1.95121e+06
619048
309963
190059
126427
88577.3
64572.7
48550.7
37386.3
29338.9
23382.1
18867.6
15374.7
12612.5
10370
8486.31
6833.87
5339.41
4034.88
2988.99
2223.8
2051.31
1.24797e+07
1.9515e+06
619764
310214
190143
126429
88554.8
64556.1
48541.6
37380.4
29339
23384.5
18873.8
15383.9
12623.4
10381.4
8492.7
6828
5321.18
4014.08
2973.54
2219.4
2049.71
1.25404e+07
1.95506e+06
619796
310334
190261
126475
88551.7
64545.7
48534.6
37378.9
29343.6
23391.8
18882.3
15393.5
12632.8
10386.4
8488.21
6815.37
5310.41
4010.03
2972.77
2219.69
2051.97
1.25435e+07
1.95798e+06
620075
310543
190298
126452
88546.9
64546.3
48533.9
37383
29350.6
23402.2
18893.5
15403.5
12639.4
10388.4
8489.36
6825.76
5334.3
4037.06
2991.34
2224.47
2064.62
1.24797e+07
1.95697e+06
620463
310578
190187
126359
88516.9
64536.7
48532
37388
29358.7
23413.7
18905.7
15414.1
12648.2
10398.6
8508.57
6856.86
5366.16
4058.26
3000.8
2226.52
2070.58
1.24797e+07
1.95694e+06
621077
310640
190110
126292
88504.1
64540.4
48549.9
37411.8
29384.3
23433.9
18921.5
15427.6
12662.5
10418.1
8531.67
6869.46
5356.1
4033.9
2978.72
2221.63
2077.17
1.24797e+07
1.95429e+06
620430
310456
190035
126278
88522.5
64576.3
48583.6
37441
29408.5
23453.6
18937.6
15443.2
12679.3
10432.7
8531.37
6843.26
5312.55
3994.06
2953.58
2215.68
2074.63
1.24797e+07
1.95698e+06
620555
310545
190072
126339
88571.3
64623.4
48626.6
37474
29432.9
23474.1
18957.4
15461.4
12693.4
10434.7
8516.7
6822.68
5307.69
4007.26
2970.14
2220.62
2074.8
1.24798e+07
1.957e+06
620700
311005
190535
126616
88716.7
64708.5
48685.1
37518.1
29466.8
23502.6
18982.1
15480.9
12704.8
10439.1
8527.09
6859.44
5373.1
4076.06
3017.99
2233.05
2095.45
1.2539e+07
1.96093e+06
621489
311438
190812
126743
88773
64747.6
48720.8
37549.8
29497.2
23529.1
19003.1
15496.2
12717.8
10460.3
8569.91
6921.53
5431.24
4113.57
3034.06
2235.52
2083.44
1.25421e+07
1.96109e+06
622315
311605
190677
126647
88738.1
64732.9
48716.1
37551.8
29501.1
23534.4
19006.9
15499.8
12727.9
10482.8
8596.01
6925.25
5397.28
4062.15
2989.26
2220.37
2060.27
1.24798e+07
1.95462e+06
621744
311530
190648
126651
88744.4
64759.7
48748.2
37578.1
29518.2
23544
19014.6
15509.6
12740
10488.6
8575.41
6868.69
5321.22
3992.24
2942.19
2207.26
2060.26
1.24799e+07
1.95225e+06
621229
311574
190805
126820
88856.1
64832.3
48799.7
37615.9
29547.1
23568.5
19036.5
15528.9
12750.4
10479.3
8545.98
6839.66
5315.99
4008.07
2961.22
2211.62
2055.36
1.24799e+07
1.95214e+06
620971
311540
190868
126856
88912
64877.4
48829.4
37639.6
29566.4
23582.6
19047.9
15535.3
12747
10469
8548.22
6876.51
5383.53
4079.26
3010.41
2222.41
2053.49
1.24799e+07
1.95496e+06
621351
311966
191219
127056
89029.9
64953.5
48872.5
37666.9
29588.1
23598.5
19057.4
15539.4
12750
10484.6
8589.78
6936.62
5437.25
4111.81
3023.82
2223.98
2050.33
1.248e+07
1.95513e+06
622264
312492
191386
127112
89039.2
64947.9
48875.4
37669.3
29590.3
23601.7
19059.8
15542.8
12762
10509.7
8616.33
6939.71
5409.23
4071.82
2991.45
2215.21
2046.56
1.24181e+07
1.94926e+06
622093
312606
191453
127155
89048.7
64943
48863.1
37659.9
29584
23597.3
19057.6
15545.7
12771
10513.8
8597.01
6892.31
5351.67
4024.8
2961.96
2207.69
2043.57
1.24751e+07
1.95266e+06
622795
312779
191445
127167
89047.8
64946.2
48870.3
37662.5
29585.7
23600.6
19062.9
15551.3
12770.8
10499.2
8569.59
6870.15
5348.79
4034.22
2971.04
2209.17
2045.35
1.25985e+07
1.96274e+06
624446
313223
191551
127191
89058
64958.1
48887.2
37676
29594.5
23606.6
19068.1
15553.3
12765.8
10491.1
8574.12
6898.48
5391.1
4071.22
2992.79
2212.84
2046.15
1.25405e+07
1.95699e+06
623654
313113
191601
127236
89098.3
65000.8
48915
37698.3
29610.5
23618.2
19074.9
15556.6
12769.6
10504.7
8601.87
6929.97
5411.31
4077.71
2991.74
2211.06
2036.43
1.24802e+07
1.95324e+06
623494
313338
191778
127301
89161.9
65045.5
48941.4
37711.8
29617.9
23623.5
19079.4
15562.4
12780.5
10520.9
8613.42
6924.11
5389.8
4053.66
2974.2
2206.37
2035.31
1.24803e+07
1.95613e+06
623941
313743
191970
127376
89206.3
65061.7
48945.2
37714.1
29619.4
23624.4
19081.6
15567.2
12787.2
10522.5
8602.11
6903.23
5370.78
4041.73
2967.51
2204.45
2031.56
1.24803e+07
1.95626e+06
624689
313800
191948
127386
89189.5
65056.1
48943.9
37714
29621.1
23626.3
19086.6
15573
12789.2
10517.5
8595.15
6904.15
5380.85
4052.05
2972.57
2206.73
2050.51
1.24804e+07
1.95642e+06
625013
314028
192064
127438
89204.5
65061.5
48949.9
37719
29626.7
23634.3
19093.3
15577.7
12790.6
10519.6
8604.38
6919.66
5393.74
4056.25
2971.24
2207.98
2060.36
1.24805e+07
1.95665e+06
624237
314043
192055
127393
89192.5
65048.1
48938.6
37716.4
29630.2
23640.5
19098.7
15580.7
12794.8
10527.2
8612.83
6920.84
5384.15
4041.77
2959.35
2206.91
2066.25
1.24806e+07
1.95684e+06
624503
314251
192141
127406
89183.7
65043.4
48945.8
37723.3
29638.6
23647.5
19105.1
15586.8
12800.9
10532.1
8611.06
6911.12
5372.61
4033.54
2955.38
2208.11
2071.67
1.25361e+07
1.96033e+06
625532
314619
192195
127368
89165.3
65038.9
48951.5
37737
29652.5
23658.6
19113
15593
12805.5
10533.3
8609.73
6913.01
5382.17
4046.21
2965.21
2212.12
2079.38
1.24768e+07
1.95408e+06
625614
314482
192105
127354
89177.5
65059.9
48975.5
37762.6
29674
23675.1
19126
15603.5
12813.6
10540.4
8620.88
6931.3
5403.32
4062.03
2973.99
2215.72
2091.56
1.24189e+07
1.95056e+06
624855
314298
192153
127455
89268
65138.9
49032.2
37802.6
29702.8
23696.5
19142.8
15618.1
12826.9
10555.2
8637.8
6945.74
5410.56
4061.74
2970.89
2214.8
2088.48
1.24189e+07
1.95083e+06
624578
314472
192381
127632
89382
65215.4
49084.6
37836.7
29726.4
23715
19158.1
15631.3
12839.9
10567.2
8644.27
6943.3
5401.2
4050.58
2961.27
2210.8
2075.2
1.2419e+07
1.95094e+06
624961
314827
192584
127740
89447.4
65244.5
49105.1
37850.9
29736.1
23724.4
19166.8
15638.5
12845.2
10568.4
8640.03
6935.06
5392.61
4043.7
2954.9
2207.87
2072.12
1.24811e+07
1.95766e+06
625893
315299
192788
127775
89437.4
65231.5
49099.9
37847.4
29733.7
23723.4
19167.2
15640
12845.9
10567
8637.89
6935.1
5394.72
4044.02
2952.75
2207.17
2073.07
1.24812e+07
1.95782e+06
626691
315709
192871
127781
89441.4
65239.1
49104.1
37854.7
29742
23731.3
19174.2
15645.8
12850.4
10571.4
8643.88
6942.52
5401.07
4046.31
2952.47
2208.08
2080.68
1.25352e+07
1.96133e+06
627860
316191
192969
127808
89446
65248.2
49114.3
37862.8
29749.4
23740.3
19184
15654.5
12857.4
10578.1
8649.63
6946.32
5402.83
4046.11
2951.14
2208.76
2086.49
1.25384e+07
1.96156e+06
627729
316057
192921
127825
89459.4
65258.3
49126.2
37877.5
29765.6
23754.2
19194.1
15662.2
12863.9
10582.6
8651.91
6947
5403.44
4045.57
2949.51
2208.96
2089.17
1.24815e+07
1.95846e+06
627710
316182
192883
127793
89462.2
65276.6
49141.8
37894.3
29783.9
23769.8