/*--------------------------------*- C++ -*----------------------------------*\
  =========                 |
  \\      /  F ield         | OpenFOAM: The Open Source CFD Toolbox
   \\    /   O peration     | Website:  https://openfoam.org
    \\  /    A nd           | Version:  10
     \\/     M anipulation  |
\*---------------------------------------------------------------------------*/
FoamFile
{
    format      ascii;
    class       volScalarField;
    location    "491";
    object      p;
}
// * * * * * * * * * * * * * * * * * * * * * * * * * * * * * * * * * * * * * //

dimensions      [0 2 -2 0 0 0 0];

internalField   nonuniform List<scalar> 
96890
(
97.1359
97.1329
97.1356
97.1373
97.1362
97.1408
97.1439
97.1503
97.1581
97.1679
97.1815
97.1989
97.2192
97.2458
97.2816
97.3275
97.3879
97.4697
97.5865
97.7553
97.9878
98.3058
99.3134
-221.901
-221.901
-221.9
-221.898
-221.893
-221.886
-221.875
-221.861
-221.84
-221.814
-221.779
-221.734
-221.676
-221.602
-221.508
-221.389
-221.238
-221.049
-220.817
-220.527
-220.155
-219.713
-219.355
-222.817
-222.816
-222.815
-222.813
-222.809
-222.802
-222.792
-222.777
-222.757
-222.731
-222.696
-222.649
-222.589
-222.512
-222.411
-222.282
-222.114
-221.897
-221.621
-221.26
-220.781
-220.202
-219.513
149.055
149.054
149.052
149.05
149.046
149.043
149.04
149.046
149.062
149.091
149.146
149.235
149.375
149.591
149.88
150.256
150.744
151.307
151.909
152.49
152.944
153.005
152.294
170.075
170.201
170.373
170.613
170.934
171.353
171.934
172.75
173.9
175.383
177.162
179.301
181.777
184.464
187.343
190.298
193.091
195.507
197.373
198.504
198.71
197.402
195.375
139.228
139.228
139.228
139.229
139.23
139.234
139.238
139.244
139.254
139.265
139.283
139.304
139.331
139.366
139.409
139.465
139.535
139.621
139.723
139.83
139.899
139.863
139.797
145.282
145.282
145.282
145.282
145.286
145.286
145.295
145.306
145.322
145.347
145.379
145.422
145.479
145.551
145.643
145.759
145.902
146.076
146.279
146.5
146.678
146.667
146.621
109.598
109.598
109.598
109.599
109.602
109.602
109.606
109.611
109.618
109.626
109.635
109.646
109.661
109.677
109.695
109.715
109.736
109.761
109.788
109.813
109.823
109.759
109.585
114.113
114.113
114.113
114.114
114.116
114.118
114.122
114.126
114.133
114.142
114.152
114.163
114.178
114.195
114.213
114.232
114.252
114.272
114.292
114.305
114.29
114.192
114.04
118.745
118.745
118.745
118.746
118.748
118.75
118.754
118.76
118.766
118.775
118.786
118.799
118.814
118.833
118.852
118.873
118.895
118.917
118.941
118.961
118.953
118.852
118.759
123.535
123.535
123.535
123.536
123.538
123.54
123.542
123.548
123.553
123.561
123.569
123.578
123.589
123.6
123.61
123.614
123.614
123.604
123.579
123.524
123.397
123.089
122.449
128.606
128.606
128.606
128.608
128.607
128.612
128.613
128.619
128.626
128.634
128.643
128.654
128.667
128.682
128.695
128.708
128.718
128.725
128.726
128.711
128.652
128.494
128.086
133.954
133.954
133.954
133.955
133.958
133.959
133.964
133.97
133.977
133.987
133.998
134.01
134.026
134.043
134.061
134.08
134.098
134.113
134.12
134.104
134.02
133.798
133.17
105.188
105.188
105.188
105.19
105.189
105.193
105.197
105.202
105.207
105.215
105.225
105.236
105.25
105.266
105.285
105.304
105.323
105.343
105.361
105.372
105.366
105.246
105.04
151.945
152.08
152.284
152.579
152.986
153.531
154.203
154.973
155.805
156.667
157.522
158.331
159.018
159.606
160.284
161.1
161.911
162.69
163.372
163.838
163.933
163.533
162.45
101.175
101.175
101.175
101.175
101.178
101.179
101.183
101.187
101.194
101.202
101.212
101.225
101.241
101.26
101.284
101.311
101.342
101.374
101.409
101.439
101.431
101.199
100.931
63.1045
63.1043
63.1047
63.1045
63.1067
63.1072
63.1092
63.112
63.1159
63.1204
63.1251
63.1306
63.1357
63.1397
63.14
63.1344
63.1171
63.0792
63.0009
62.8326
62.4935
61.9422
59.4999
92.8079
92.8116
92.8102
92.811
92.8127
92.8149
92.8194
92.8251
92.8308
92.8399
92.85
92.8628
92.8762
92.8918
92.9091
92.9273
92.9439
92.9576
92.9654
92.9576
92.9014
92.7691
92.5086
89.0957
89.0959
89.0964
89.0965
89.0978
89.1009
89.1046
89.1086
89.1143
89.1203
89.1292
89.1394
89.1498
89.1631
89.1773
89.1917
89.2057
89.2189
89.2254
89.2146
89.1578
89.0171
88.5462
85.4012
85.4017
85.402
85.4022
85.4034
85.4062
85.4101
85.4128
85.4185
85.425
85.4339
85.4432
85.4554
85.47
85.486
85.5042
85.5253
85.5493
85.5758
85.6009
85.6175
85.605
85.4817
81.8207
81.8211
81.8214
81.8218
81.8229
81.8262
81.8277
81.8326
81.8377
81.8441
81.8517
81.8606
81.8714
81.8824
81.8944
81.9055
81.9161
81.9235
81.9249
81.9101
81.8662
81.7365
81.4252
78.5265
78.5243
78.5274
78.5256
78.5285
78.5291
78.5327
78.5373
78.542
78.5495
78.5572
78.5676
78.5787
78.5927
78.6072
78.6229
78.6387
78.6541
78.664
78.6597
78.6267
78.4677
78.1767
75.5202
75.5228
75.5207
75.5225
75.5233
75.525
75.5287
75.5319
75.5388
75.5461
75.5568
75.5694
75.5859
75.607
75.6333
75.6665
75.7086
75.7639
75.8344
75.9228
76.0235
76.0211
76.138
72.4484
72.4486
72.4494
72.4491
72.4505
72.4529
72.4559
72.4615
72.4675
72.4766
72.4886
72.5036
72.5243
72.5509
72.5867
72.6343
72.6988
72.7886
72.9158
73.1024
73.3576
73.6687
74.5707
69.0776
69.0779
69.0767
69.0791
69.0785
69.0823
69.0852
69.09
69.0954
69.104
69.1131
69.1257
69.1409
69.1591
69.1818
69.2094
69.2435
69.2863
69.343
69.4248
69.4813
69.5225
69.7743
65.8224
65.8216
65.8222
65.8229
65.824
65.826
65.8285
65.8318
65.8364
65.8416
65.8466
65.8529
65.8592
65.8642
65.8669
65.8666
65.8597
65.8435
65.8154
65.767
65.6048
65.5553
65.4903
12.0082
12.0085
12.0093
12.0087
12.0106
12.0122
12.0154
12.0187
12.0246
12.0309
12.04
12.0511
12.0644
12.0806
12.0993
12.1213
12.1464
12.1737
12.201
12.2245
12.2259
12.1757
12.0372
10.0016
10.0016
10.001
10.0026
10.0029
10.0044
10.0063
10.0092
10.0128
10.0178
10.0238
10.0313
10.041
10.053
10.0673
10.0851
10.1064
10.1307
10.1573
10.1811
10.1848
10.1452
9.88566
60.9259
60.9254
60.9257
60.9267
60.9277
60.9288
60.9314
60.9354
60.9415
60.9493
60.9605
60.9749
60.9955
61.0233
61.0626
61.118
61.1973
61.3146
61.4911
61.7722
62.2768
63.1182
64.1133
57.8191
57.8199
57.8197
57.8212
57.8207
57.8229
57.825
57.8282
57.8322
57.8382
57.8457
57.8542
57.8647
57.8776
57.8923
57.909
57.9269
57.9455
57.9619
57.9684
57.9436
57.8406
57.5667
55.4674
55.4677
55.4679
55.4681
55.4697
55.4706
55.4736
55.4776
55.482
55.4888
55.4968
55.5075
55.5206
55.5375
55.5599
55.5878
55.6242
55.6727
55.7367
55.8205
55.9174
56.0111
55.9764
52.7575
52.7556
52.7581
52.7569
52.7584
52.7599
52.7631
52.7664
52.772
52.778
52.7874
52.7978
52.8122
52.8306
52.8537
52.8819
52.9181
52.9645
53.0234
53.0946
53.1663
53.2214
53.217
50.3122
50.3144
50.3125
50.3152
50.3144
50.3164
50.319
50.3224
50.3272
50.3339
50.3415
50.3518
50.365
50.3819
50.404
50.4311
50.4659
50.5118
50.5729
50.6531
50.747
50.8713
51.0161
47.8033
47.803
47.8042
47.8034
47.8045
47.8061
47.8079
47.811
47.815
47.8201
47.8263
47.8348
47.8447
47.8578
47.8744
47.8943
47.9187
47.9489
47.9867
48.0259
48.0478
48.0423
47.8606
45.4566
45.4567
45.4569
45.4569
45.4582
45.4599
45.4616
45.4654
45.4698
45.4757
45.4838
45.4943
45.5076
45.5246
45.5468
45.575
45.6121
45.661
45.7265
45.808
45.8986
45.9949
46.0146
43.0441
43.0449
43.0451
43.0443
43.0465
43.0468
43.0498
43.0531
43.0577
43.0636
43.0718
43.0824
43.0957
43.1133
43.136
43.1661
43.2048
43.2553
43.3214
43.4082
43.5154
43.652
43.8126
40.6783
40.6786
40.6784
40.6788
40.6795
40.6815
40.6833
40.6873
40.692
40.6986
40.7067
40.7179
40.7315
40.7497
40.773
40.8032
40.8409
40.8881
40.9477
41.0227
41.105
41.1684
41.0856
38.3521
38.3524
38.3522
38.3527
38.3539
38.3553
38.3578
38.3617
38.3669
38.3734
38.3827
38.3938
38.4093
38.429
38.4548
38.4885
38.5314
38.5878
38.6663
38.7731
38.909
39.0739
39.3219
35.9885
35.9879
35.9875
35.9894
35.989
35.9909
35.9932
35.9956
35.9998
36.005
36.0113
36.0199
36.031
36.0441
36.0611
36.0822
36.1083
36.1409
36.1846
36.2341
36.2737
36.2856
36.2575
33.7185
33.7184
33.7182
33.719
33.7208
33.7209
33.7243
33.7268
33.7312
33.737
33.7445
33.7541
33.7661
33.7811
33.8001
33.824
33.8546
33.894
33.9451
34.0056
34.0636
34.1188
34.1222
31.4717
31.4721
31.4735
31.4722
31.4733
31.4761
31.4772
31.4812
31.4857
31.4914
31.4992
31.5095
31.5222
31.5389
31.5597
31.587
31.6214
31.6652
31.72
31.7861
31.8529
31.9029
31.8475
29.2966
29.2958
29.2949
29.2972
29.2977
29.2983
29.3012
29.3049
29.3091
29.3154
29.3235
29.3344
29.3487
29.3669
29.3906
29.4216
29.4617
29.5138
29.5823
29.6715
29.7834
29.9152
30.1141
27.1059
27.1064
27.1071
27.1069
27.1071
27.1101
27.1128
27.1167
27.1229
27.1304
27.1408
27.154
27.1721
27.195
27.2245
27.2636
27.3133
27.3767
27.4598
27.5648
27.6828
27.7635
27.7394
24.9449
24.9445
24.9456
24.9445
24.947
24.948
24.9512
24.9547
24.9603
24.9682
24.9782
24.9911
25.0088
25.0318
25.0624
25.1037
25.1596
25.2364
25.3454
25.502
25.7188
26.0166
26.6747
22.5408
22.5426
22.541
22.5427
22.5434
22.5449
22.547
22.5496
22.5544
22.5597
22.5661
22.5741
22.5841
22.5964
22.6106
22.6262
22.6438
22.6624
22.6801
22.69
22.6677
22.5926
22.4091
20.4719
20.4722
20.4722
20.4722
20.4741
20.475
20.4764
20.4796
20.4833
20.4884
20.4944
20.5015
20.5107
20.522
20.5357
20.5514
20.5699
20.5903
20.6118
20.6297
20.6303
20.5986
20.3421
18.4466
18.4465
18.4465
18.447
18.4476
18.4489
18.4507
18.4527
18.4569
18.4622
18.4685
18.4773
18.4883
18.5027
18.5206
18.5432
18.5713
18.6058
18.6481
18.6936
18.7319
18.7427
18.6383
16.565
16.5657
16.5652
16.5659
16.5663
16.5681
16.5706
16.5747
16.58
16.5872
16.598
16.6121
16.6308
16.6562
16.69
16.7355
16.7961
16.8781
16.9905
17.1393
17.3305
17.5386
17.7293
14.4002
14.3992
14.3992
14.4002
14.4008
14.4028
14.406
14.4105
14.4164
14.4251
14.4365
14.4522
14.4728
14.5004
14.5377
14.5884
14.6576
14.7531
14.8889
15.0842
15.3629
15.7597
16.5501
-56.6917
-56.6916
-56.6913
-56.6909
-56.6902
-56.6892
-56.6867
-56.6843
-56.68
-56.6747
-56.6681
-56.6596
-56.6488
-56.6356
-56.619
-56.5989
-56.5747
-56.5457
-56.5124
-56.4777
-56.455
-56.4542
-56.6966
-58.0795
-58.0791
-58.0793
-58.0787
-58.0779
-58.0764
-58.0742
-58.0711
-58.067
-58.0616
-58.0545
-58.0453
-58.0334
-58.0182
-57.9984
-57.9729
-57.9401
-57.8974
-57.8404
-57.7637
-57.6683
-57.5461
-57.4336
-59.449
-59.4487
-59.4495
-59.4483
-59.4483
-59.4462
-59.4443
-59.4417
-59.4376
-59.4326
-59.4262
-59.4176
-59.4066
-59.3928
-59.3754
-59.3538
-59.3265
-59.2924
-59.2494
-59.1973
-59.1439
-59.0943
-59.114
-60.7223
-60.7231
-60.7224
-60.7228
-60.7213
-60.7202
-60.7188
-60.7161
-60.7125
-60.7078
-60.7013
-60.6931
-60.6822
-60.6682
-60.65
-60.6266
-60.5969
-60.5588
-60.5099
-60.4491
-60.3765
-60.2907
-60.2319
-61.9911
-61.9915
-61.9914
-61.9909
-61.99
-61.9885
-61.9863
-61.9833
-61.979
-61.9733
-61.966
-61.956
-61.9432
-61.9267
-61.9054
-61.8779
-61.8426
-61.7969
-61.7392
-61.6682
-61.5867
-61.5172
-61.5328
7.96026
7.96033
7.96114
7.96087
7.96172
7.96312
7.9646
7.96846
7.97187
7.97746
7.98388
7.99269
8.00425
8.019
8.03734
8.06043
8.08956
8.12614
8.17239
8.22743
8.28799
8.35265
8.385
5.99288
5.99297
5.9931
5.99289
5.99432
5.99571
5.99856
6.00151
6.00658
6.01231
6.02013
6.03045
6.04377
6.06047
6.08135
6.1074
6.13985
6.1809
6.23249
6.29299
6.35423
6.39965
6.35335
4.08802
4.08801
4.08756
4.08918
4.08964
4.09124
4.09351
4.0969
4.10143
4.10703
4.11461
4.125
4.13855
4.15609
4.17809
4.20587
4.24165
4.28835
4.34946
4.42744
4.52377
4.64798
4.84445
2.20178
2.20168
2.20218
2.20276
2.20352
2.20505
2.20738
2.21085
2.21554
2.22142
2.22939
2.23997
2.25356
2.27032
2.29102
2.31654
2.3472
2.38424
2.42795
2.47387
2.50993
2.5179
2.38778
0.499939
0.499474
0.500114
0.500235
0.501622
0.50263
0.504823
0.507915
0.512251
0.518009
0.526046
0.536364
0.550445
0.568302
0.591582
0.622089
0.662135
0.71453
0.784663
0.876104
0.991574
1.13339
1.30019
-1.33794
-1.33775
-1.33713
-1.33719
-1.33642
-1.33462
-1.33322
-1.32974
-1.32573
-1.32008
-1.31222
-1.30207
-1.28962
-1.27299
-1.25215
-1.22559
-1.19244
-1.15058
-1.09599
-1.0294
-0.956206
-0.872918
-0.768583
-3.0468
-3.04796
-3.04691
-3.04705
-3.04577
-3.04513
-3.04249
-3.0402
-3.03606
-3.03037
-3.02326
-3.01403
-3.00187
-2.9865
-2.96691
-2.94202
-2.91057
-2.87069
-2.81974
-2.76018
-2.69858
-2.62998
-2.62112
-4.75965
-4.75738
-4.7598
-4.75804
-4.75806
-4.7563
-4.75406
-4.75045
-4.74573
-4.73951
-4.73101
-4.71963
-4.70529
-4.68642
-4.66274
-4.63239
-4.59279
-4.54175
-4.47489
-4.39236
-4.2966
-4.18914
-4.14103
-6.45917
-6.46053
-6.45919
-6.45934
-6.45843
-6.45681
-6.4545
-6.45171
-6.4471
-6.44109
-6.43343
-6.42374
-6.41049
-6.39411
-6.37303
-6.34538
-6.30994
-6.26346
-6.20175
-6.12199
-6.02464
-5.88643
-5.65661
-8.17901
-8.17813
-8.17908
-8.17854
-8.17707
-8.17608
-8.1735
-8.1697
-8.16538
-8.15972
-8.15183
-8.14199
-8.12978
-8.11494
-8.09633
-8.07367
-8.04671
-8.01428
-7.97683
-7.93952
-7.91676
-7.90209
-8.02281
-9.73014
-9.73191
-9.73032
-9.73006
-9.72963
-9.72726
-9.72484
-9.72157
-9.71684
-9.70967
-9.70145
-9.69073
-9.67656
-9.65887
-9.63604
-9.60736
-9.57112
-9.52505
-9.46488
-9.39222
-9.31061
-9.21837
-9.21403
-11.2897
-11.2888
-11.2892
-11.289
-11.2882
-11.2868
-11.2847
-11.2821
-11.2776
-11.2726
-11.266
-11.2569
-11.245
-11.2299
-11.2107
-11.1856
-11.1532
-11.1105
-11.0539
-10.9809
-10.8894
-10.7721
-10.6152
-12.8174
-12.8182
-12.8179
-12.8172
-12.8165
-12.8154
-12.813
-12.8097
-12.8051
-12.7995
-12.792
-12.7818
-12.7684
-12.7514
-12.7294
-12.7014
-12.6651
-12.6196
-12.5623
-12.4922
-12.4284
-12.3888
-12.3787
-14.3564
-14.3564
-14.3559
-14.3552
-14.3547
-14.3535
-14.351
-14.3475
-14.3426
-14.3364
-14.3283
-14.3173
-14.3022
-14.2827
-14.2563
-14.2214
-14.1746
-14.1106
-14.0194
-13.8951
-13.7568
-13.5233
-13.1129
-16.1767
-16.1767
-16.1763
-16.1757
-16.1752
-16.1741
-16.1722
-16.1695
-16.1664
-16.162
-16.1572
-16.1509
-16.1438
-16.1355
-16.1261
-16.1158
-16.1047
-16.0954
-16.087
-16.1039
-16.1562
-15.9773
-15.7192
-17.494
-17.4934
-17.4932
-17.4931
-17.4928
-17.4921
-17.4907
-17.489
-17.4862
-17.4827
-17.4784
-17.4731
-17.4668
-17.4596
-17.4526
-17.4477
-17.4498
-17.4636
-17.4785
-17.5497
-17.7909
-18.2139
-20.2427
-18.5625
-18.5625
-18.5625
-18.5622
-18.5614
-18.5593
-18.5569
-18.5526
-18.5471
-18.5385
-18.5263
-18.5097
-18.4864
-18.454
-18.4088
-18.3449
-18.2531
-18.1075
-17.8512
-17.4447
-16.8863
-16.0511
-14.9492
-20.5073
-20.507
-20.5075
-20.5067
-20.5058
-20.5043
-20.5017
-20.4987
-20.4938
-20.4876
-20.4796
-20.4693
-20.4563
-20.4403
-20.4206
-20.3982
-20.3728
-20.3451
-20.3206
-20.297
-20.2965
-20.3687
-20.5367
-21.7327
-21.7329
-21.7323
-21.7323
-21.7314
-21.7306
-21.7287
-21.7263
-21.7228
-21.7179
-21.7111
-21.7025
-21.6915
-21.677
-21.6583
-21.6342
-21.6031
-21.5631
-21.5105
-21.4468
-21.3814
-21.2768
-21.3355
-23.3325
-23.3322
-23.3328
-23.3321
-23.3313
-23.3302
-23.3284
-23.3256
-23.3218
-23.3166
-23.3096
-23.3005
-23.2882
-23.2727
-23.2532
-23.2286
-23.1982
-23.1607
-23.1148
-23.0592
-22.9995
-22.9502
-23.1387
-24.6657
-24.6667
-24.6655
-24.6655
-24.6649
-24.6631
-24.6603
-24.6569
-24.6511
-24.6438
-24.6337
-24.6204
-24.6022
-24.5788
-24.5475
-24.5062
-24.4512
-24.3773
-24.2775
-24.1419
-23.969
-23.8047
-23.6864
-26.3085
-26.3085
-26.3083
-26.308
-26.307
-26.305
-26.3025
-26.2982
-26.2932
-26.2856
-26.2758
-26.262
-26.2438
-26.22
-26.188
-26.1451
-26.0874
-26.0072
-25.8937
-25.7315
-25.5024
-25.1528
-24.3387
-28.0864
-28.0842
-28.0862
-28.0848
-28.0837
-28.0823
-28.0795
-28.0761
-28.0716
-28.0659
-28.0584
-28.0488
-28.0377
-28.0242
-28.0086
-27.9905
-27.9707
-27.9508
-27.9342
-27.9302
-27.9558
-28.0047
-28.2378
-29.5406
-29.5415
-29.5404
-29.5401
-29.5394
-29.5385
-29.5357
-29.5328
-29.5287
-29.5236
-29.5166
-29.5078
-29.4966
-29.4825
-29.4653
-29.444
-29.4178
-29.3861
-29.3483
-29.3035
-29.2571
-29.2045
-29.3728
-31.0555
-31.0546
-31.0554
-31.0544
-31.0539
-31.0524
-31.0504
-31.047
-31.0426
-31.0369
-31.0294
-31.0193
-31.0062
-30.9901
-30.97
-30.9446
-30.9132
-30.874
-30.824
-30.7595
-30.6885
-30.6259
-30.6345
-32.4452
-32.4453
-32.4448
-32.4445
-32.4442
-32.4425
-32.4402
-32.4375
-32.4328
-32.4275
-32.4199
-32.4102
-32.3973
-32.3809
-32.3589
-32.3308
-32.2942
-32.2453
-32.1787
-32.0879
-31.9736
-31.8242
-31.6287
-33.9199
-33.9208
-33.92
-33.9199
-33.9192
-33.918
-33.9157
-33.913
-33.9095
-33.904
-33.8973
-33.8885
-33.8776
-33.8635
-33.8457
-33.8228
-33.7938
-33.7558
-33.7052
-33.6395
-33.5624
-33.4512
-33.3694
-35.3548
-35.3547
-35.3541
-35.3544
-35.3532
-35.3512
-35.3499
-35.3468
-35.3427
-35.3374
-35.3306
-35.3222
-35.3114
-35.2976
-35.2802
-35.2584
-35.2308
-35.1961
-35.1541
-35.1046
-35.0546
-34.9985
-35.1074
-36.7188
-36.7191
-36.7193
-36.7184
-36.7173
-36.7165
-36.7139
-36.711
-36.7066
-36.7012
-36.6939
-36.6844
-36.6723
-36.6567
-36.6368
-36.6117
-36.5797
-36.5384
-36.4862
-36.42
-36.3382
-36.2301
-36.1779
-38.0653
-38.0661
-38.0651
-38.0646
-38.0646
-38.0624
-38.0609
-38.0578
-38.0534
-38.0473
-38.0396
-38.0298
-38.0171
-38.0007
-37.9794
-37.952
-37.9166
-37.8715
-37.8139
-37.7397
-37.6526
-37.556
-37.5538
-39.4329
-39.4314
-39.4329
-39.4316
-39.4302
-39.4297
-39.4265
-39.4235
-39.4189
-39.4128
-39.4051
-39.3949
-39.3814
-39.3639
-39.3411
-39.3114
-39.2729
-39.2219
-39.1532
-39.0591
-38.9369
-38.7676
-38.524
-40.838
-40.8387
-40.8377
-40.8375
-40.8367
-40.8353
-40.8332
-40.8301
-40.8258
-40.8206
-40.8134
-40.8045
-40.793
-40.7792
-40.7619
-40.7405
-40.7146
-40.6833
-40.6462
-40.6044
-40.5717
-40.5427
-40.5857
-42.0564
-42.0568
-42.056
-42.056
-42.0555
-42.0538
-42.0521
-42.049
-42.0453
-42.0399
-42.033
-42.0239
-42.0119
-41.9968
-41.9768
-41.9513
-41.9188
-41.8776
-41.8254
-41.7617
-41.6918
-41.6085
-41.6304
-43.2918
-43.2904
-43.2916
-43.2909
-43.2901
-43.2889
-43.2868
-43.2841
-43.28
-43.2749
-43.2676
-43.2579
-43.2449
-43.2277
-43.2043
-43.1738
-43.1333
-43.0793
-43.0071
-42.9097
-42.7821
-42.6053
-42.4309
-44.6138
-44.6144
-44.6139
-44.6139
-44.6129
-44.6116
-44.61
-44.6068
-44.6033
-44.5979
-44.5908
-44.5813
-44.5687
-44.552
-44.5297
-44.5002
-44.4611
-44.4094
-44.3401
-44.2476
-44.1312
-43.9698
-43.7999
-45.9778
-45.9772
-45.9776
-45.9775
-45.9763
-45.9752
-45.9733
-45.9708
-45.9671
-45.9625
-45.9564
-45.948
-45.9373
-45.9231
-45.9052
-45.8824
-45.8535
-45.8165
-45.7676
-45.7053
-45.6352
-45.5239
-45.4479
-47.2659
-47.2663
-47.2661
-47.2659
-47.265
-47.2636
-47.2621
-47.259
-47.2561
-47.2514
-47.2453
-47.2371
-47.2266
-47.2133
-47.1961
-47.1744
-47.1476
-47.1153
-47.0766
-47.0341
-46.998
-46.9499
-47.1336
-48.4395
-48.4397
-48.4398
-48.4389
-48.4381
-48.4375
-48.4351
-48.433
-48.429
-48.4235
-48.4161
-48.4061
-48.3926
-48.3747
-48.3509
-48.3196
-48.2784
-48.2232
-48.1492
-48.0516
-47.9221
-47.7635
-47.7949
-49.7974
-49.7979
-49.7969
-49.7968
-49.7964
-49.7945
-49.7926
-49.7897
-49.7852
-49.7796
-49.7722
-49.7619
-49.7488
-49.7316
-49.7088
-49.6786
-49.6386
-49.5851
-49.512
-49.4108
-49.2671
-49.0787
-48.8009
-51.131
-51.1299
-51.1311
-51.1297
-51.1293
-51.128
-51.1262
-51.1232
-51.1197
-51.1144
-51.1073
-51.0983
-51.0868
-51.0719
-51.0535
-51.0312
-51.0045
-50.9729
-50.9377
-50.9018
-50.8849
-50.927
-51.1077
-52.2475
-52.2482
-52.2472
-52.2475
-52.2465
-52.2452
-52.2426
-52.2397
-52.2343
-52.2276
-52.2183
-52.2057
-52.1884
-52.165
-52.1335
-52.0909
-52.0336
-51.9559
-51.85
-51.7062
-51.5208
-51.3179
-51.1129
-53.6905
-53.6899
-53.6903
-53.6897
-53.6891
-53.687
-53.6849
-53.6813
-53.6765
-53.6696
-53.6596
-53.6462
-53.6282
-53.6039
-53.5707
-53.5257
-53.4639
-53.3773
-53.2543
-53.0769
-52.8184
-52.4421
-51.6773
-55.3312
-55.3324
-55.3311
-55.3316
-55.3297
-55.3289
-55.3266
-55.3229
-55.3188
-55.3123
-55.3048
-55.2955
-55.2837
-55.2692
-55.2514
-55.2302
-55.2055
-55.1773
-55.1468
-55.1208
-55.11
-55.1141
-55.1621
-154.418
-154.417
-154.417
-154.416
-154.413
-154.41
-154.403
-154.395
-154.384
-154.37
-154.351
-154.326
-154.295
-154.255
-154.205
-154.141
-154.058
-153.954
-153.821
-153.649
-153.425
-153.172
-152.903
-155.1
-155.1
-155.099
-155.099
-155.096
-155.092
-155.087
-155.079
-155.068
-155.053
-155.033
-155.008
-154.974
-154.93
-154.873
-154.796
-154.694
-154.557
-154.371
-154.109
-153.736
-153.185
-152.323
-156.046
-156.045
-156.045
-156.044
-156.042
-156.038
-156.033
-156.025
-156.015
-156.002
-155.984
-155.961
-155.932
-155.895
-155.847
-155.785
-155.706
-155.604
-155.471
-155.295
-155.057
-154.753
-154.602
-156.955
-156.955
-156.955
-156.954
-156.951
-156.947
-156.942
-156.934
-156.924
-156.911
-156.894
-156.872
-156.844
-156.809
-156.763
-156.707
-156.637
-156.547
-156.43
-156.275
-156.075
-155.856
-155.66
-157.901
-157.901
-157.9
-157.899
-157.897
-157.893
-157.888
-157.881
-157.871
-157.858
-157.842
-157.821
-157.794
-157.761
-157.72
-157.669
-157.607
-157.53
-157.436
-157.323
-157.194
-157.072
-156.928
-158.623
-158.623
-158.623
-158.621
-158.619
-158.615
-158.61
-158.603
-158.592
-158.579
-158.562
-158.539
-158.51
-158.473
-158.427
-158.369
-158.295
-158.202
-158.088
-157.949
-157.775
-157.554
-157.428
-159.399
-159.398
-159.398
-159.396
-159.394
-159.39
-159.384
-159.376
-159.365
-159.35
-159.331
-159.307
-159.275
-159.234
-159.183
-159.116
-159.029
-158.916
-158.775
-158.595
-158.348
-157.994
-157.76
-160.213
-160.213
-160.213
-160.211
-160.208
-160.204
-160.198
-160.189
-160.178
-160.163
-160.144
-160.119
-160.088
-160.049
-160
-159.939
-159.862
-159.77
-159.657
-159.516
-159.342
-159.12
-159.032
-160.836
-160.836
-160.835
-160.834
-160.831
-160.828
-160.822
-160.814
-160.803
-160.789
-160.771
-160.748
-160.719
-160.681
-160.633
-160.573
-160.499
-160.409
-160.293
-160.149
-159.972
-159.774
-159.685
-161.551
-161.551
-161.55
-161.549
-161.546
-161.542
-161.536
-161.527
-161.515
-161.5
-161.48
-161.455
-161.422
-161.381
-161.33
-161.265
-161.185
-161.08
-160.944
-160.772
-160.552
-160.286
-159.97
-63.2497
-63.249
-63.2498
-63.249
-63.2479
-63.2466
-63.2443
-63.2405
-63.2363
-63.23
-63.2217
-63.2114
-63.1974
-63.1791
-63.1553
-63.1241
-63.0831
-63.0292
-62.9566
-62.8572
-62.7245
-62.5398
-62.1539
-64.5427
-64.5437
-64.5426
-64.5425
-64.5417
-64.5406
-64.5385
-64.536
-64.5323
-64.5275
-64.5212
-64.513
-64.5027
-64.4899
-64.4737
-64.4536
-64.429
-64.3997
-64.3661
-64.3294
-64.3039
-64.2955
-64.3713
-65.6765
-65.6764
-65.6761
-65.6756
-65.6757
-65.6741
-65.6728
-65.6705
-65.6667
-65.6623
-65.6561
-65.6481
-65.6371
-65.6226
-65.6039
-65.5798
-65.5481
-65.5067
-65.4518
-65.3796
-65.2998
-65.2118
-65.129
-66.9018
-66.9013
-66.9015
-66.9015
-66.9001
-66.8995
-66.8977
-66.8948
-66.8912
-66.8863
-66.8796
-66.8704
-66.8583
-66.8428
-66.8223
-66.7956
-66.7607
-66.7151
-66.6553
-66.5775
-66.4879
-66.3567
-66.186
-68.0838
-68.0843
-68.0839
-68.0834
-68.0832
-68.0818
-68.0796
-68.0768
-68.0727
-68.0669
-68.0591
-68.0488
-68.0351
-68.0168
-67.9927
-67.9607
-67.9187
-67.8635
-67.7908
-67.6973
-67.5785
-67.4115
-67.3602
-69.3275
-69.3265
-69.3273
-69.3268
-69.3255
-69.3242
-69.3219
-69.3186
-69.3135
-69.3066
-69.2974
-69.2846
-69.2679
-69.2461
-69.2167
-69.1776
-69.1253
-69.0553
-68.9615
-68.8344
-68.6596
-68.4339
-68.2481
-70.6837
-70.6844
-70.6837
-70.6835
-70.6828
-70.6812
-70.6792
-70.6752
-70.6708
-70.6644
-70.6559
-70.6443
-70.6289
-70.6088
-70.5817
-70.5457
-70.498
-70.4342
-70.3485
-70.2327
-70.0782
-69.8926
-69.6247
-72.1368
-72.1373
-72.1368
-72.1361
-72.1357
-72.1338
-72.1311
-72.1281
-72.1233
-72.1172
-72.1094
-72.0991
-72.0862
-72.0699
-72.049
-72.0227
-71.9899
-71.9489
-71.8964
-71.8305
-71.7593
-71.6715
-71.4721
-73.4785
-73.4778
-73.4781
-73.4771
-73.4764
-73.4745
-73.4722
-73.4691
-73.4647
-73.459
-73.4515
-73.4424
-73.4308
-73.4165
-73.3988
-73.3773
-73.3518
-73.3226
-73.2898
-73.255
-73.2394
-73.2261
-73.3442
-74.6481
-74.6476
-74.6472
-74.6475
-74.6464
-74.6449
-74.6428
-74.6399
-74.6357
-74.6299
-74.6224
-74.6128
-74.6
-74.584
-74.5637
-74.5376
-74.5044
-74.4619
-74.4064
-74.3344
-74.2533
-74.138
-74.1496
-75.8426
-75.8424
-75.8423
-75.8421
-75.8409
-75.8394
-75.8373
-75.8345
-75.8307
-75.8251
-75.8187
-75.8095
-75.798
-75.7834
-75.7648
-75.741
-75.7103
-75.6709
-75.6198
-75.5549
-75.4781
-75.3681
-75.3381
-76.9813
-76.9813
-76.9813
-76.9809
-76.9804
-76.9791
-76.9776
-76.975
-76.9718
-76.9674
-76.9612
-76.9533
-76.9433
-76.9305
-76.9145
-76.894
-76.8688
-76.8375
-76.7999
-76.7574
-76.7172
-76.6745
-76.7769
-78.0197
-78.0201
-78.0193
-78.0193
-78.0185
-78.0175
-78.0154
-78.0131
-78.0091
-78.0042
-77.9974
-77.9882
-77.9764
-77.961
-77.941
-77.9153
-77.8823
-77.8405
-77.7884
-77.7242
-77.6485
-77.567
-77.5624
-79.029
-79.028
-79.0288
-79.0284
-79.0276
-79.0265
-79.0245
-79.021
-79.0166
-79.0099
-79.0008
-78.9887
-78.9725
-78.9507
-78.9212
-78.881
-78.8273
-78.755
-78.6568
-78.5211
-78.3436
-78.1658
-78.0527
-80.2677
-80.2684
-80.2681
-80.2672
-80.2668
-80.2647
-80.2623
-80.2585
-80.2533
-80.2456
-80.2357
-80.2221
-80.2038
-80.1791
-80.1456
-80.1005
-80.0385
-79.9515
-79.8269
-79.6452
-79.3898
-79.0263
-78.1888
-81.6902
-81.6906
-81.6901
-81.6898
-81.6887
-81.6875
-81.6855
-81.6824
-81.6781
-81.6727
-81.6655
-81.6562
-81.645
-81.6304
-81.6116
-81.5882
-81.5595
-81.5244
-81.4824
-81.439
-81.4064
-81.3647
-81.3937
-82.9012
-82.9008
-82.9004
-82.9004
-82.8995
-82.898
-82.8956
-82.8925
-82.8881
-82.8823
-82.8745
-82.8643
-82.8509
-82.834
-82.8121
-82.7835
-82.7465
-82.6988
-82.6388
-82.5643
-82.4712
-82.3475
-82.4432
-84.1918
-84.1922
-84.1918
-84.1914
-84.1901
-84.1887
-84.1865
-84.1831
-84.1788
-84.1728
-84.165
-84.155
-84.1417
-84.1248
-84.103
-84.0747
-84.0391
-83.9939
-83.936
-83.8604
-83.7669
-83.6533
-83.5755
-85.3877
-85.3878
-85.3878
-85.3869
-85.3863
-85.3848
-85.3825
-85.3794
-85.375
-85.3693
-85.3622
-85.3526
-85.34
-85.3239
-85.3029
-85.2756
-85.2409
-85.1963
-85.1379
-85.06
-84.9707
-84.872
-84.8508
-86.623
-86.6224
-86.6225
-86.6219
-86.6212
-86.6195
-86.6171
-86.6139
-86.6094
-86.6034
-86.5959
-86.5855
-86.5724
-86.5552
-86.5335
-86.5061
-86.4707
-86.4235
-86.359
-86.2726
-86.1711
-86.0365
-85.8917
-87.7904
-87.79
-87.7901
-87.7898
-87.7887
-87.7875
-87.7856
-87.7831
-87.779
-87.774
-87.7672
-87.7586
-87.7473
-87.733
-87.7149
-87.692
-87.6631
-87.6267
-87.5828
-87.5352
-87.4948
-87.4505
-87.5237
-88.8652
-88.8657
-88.865
-88.8646
-88.8636
-88.8622
-88.8604
-88.8574
-88.8531
-88.8475
-88.8401
-88.8299
-88.8167
-88.7995
-88.7775
-88.7485
-88.7107
-88.6631
-88.6046
-88.5348
-88.4514
-88.3381
-88.3587
-89.938
-89.938
-89.9382
-89.9375
-89.9368
-89.9357
-89.9339
-89.9309
-89.9268
-89.921
-89.9133
-89.9028
-89.8887
-89.8702
-89.8458
-89.8139
-89.7723
-89.7191
-89.6495
-89.5536
-89.431
-89.2744
-89.1955
-90.9896
-90.9893
-90.9895
-90.9887
-90.9881
-90.986
-90.9838
-90.98
-90.9742
-90.9663
-90.9559
-90.9415
-90.9223
-90.8966
-90.8626
-90.8176
-90.7589
-90.6802
-90.5736
-90.4256
-90.2535
-90.0582
-89.8662
-92.1657
-92.1662
-92.1658
-92.1654
-92.1635
-92.162
-92.1581
-92.1528
-92.1459
-92.1363
-92.1234
-92.1065
-92.0836
-92.0528
-92.0117
-91.9564
-91.8792
-91.7705
-91.6189
-91.4028
-91.1251
-90.749
-90.1864
-93.7744
-93.7746
-93.774
-93.7733
-93.7725
-93.77
-93.7672
-93.7634
-93.7584
-93.7521
-93.7439
-93.7335
-93.7207
-93.705
-93.6858
-93.662
-93.6334
-93.612
-93.6012
-93.5746
-93.5086
-93.2256
-92.5175
-94.9106
-94.9104
-94.9099
-94.9098
-94.9089
-94.908
-94.9065
-94.9043
-94.9019
-94.899
-94.8958
-94.8924
-94.8891
-94.8868
-94.8872
-94.8919
-94.9048
-94.9445
-95.048
-95.264
-95.649
-96.3239
-98.5711
-95.5179
-95.5179
-95.5177
-95.5169
-95.5159
-95.5141
-95.5113
-95.507
-95.501
-95.4926
-95.4807
-95.4644
-95.4422
-95.4113
-95.3667
-95.2975
-95.1815
-94.9945
-94.7339
-94.3954
-93.908
-93.1678
-92.0716
-97.052
-97.0522
-97.0516
-97.0516
-97.0503
-97.0485
-97.0458
-97.0417
-97.0363
-97.0294
-97.0201
-97.0084
-96.9932
-96.9741
-96.9496
-96.92
-96.8834
-96.8353
-96.7648
-96.6588
-96.5275
-96.3939
-95.9895
-98.0584
-98.0577
-98.0581
-98.0568
-98.0553
-98.0537
-98.0498
-98.0456
-98.0392
-98.031
-98.0202
-98.0067
-97.9889
-97.9668
-97.9381
-97.9022
-97.8555
-97.7942
-97.7139
-97.617
-97.5176
-97.4856
-97.68
-99.3708
-99.3708
-99.3704
-99.3696
-99.3685
-99.3653
-99.362
-99.3562
-99.3486
-99.339
-99.3265
-99.3097
-99.2879
-99.2604
-99.2241
-99.1757
-99.1094
-99.0181
-98.8918
-98.7154
-98.4643
-98.1084
-97.3343
-100.802
-100.802
-100.801
-100.801
-100.799
-100.797
-100.793
-100.789
-100.783
-100.776
-100.766
-100.754
-100.739
-100.721
-100.699
-100.671
-100.638
-100.6
-100.56
-100.52
-100.48
-100.437
-100.405
-102.05
-102.049
-102.049
-102.049
-102.047
-102.045
-102.042
-102.037
-102.031
-102.023
-102.014
-102.002
-101.987
-101.968
-101.945
-101.916
-101.882
-101.84
-101.789
-101.724
-101.649
-101.565
-101.597
-103.337
-103.337
-103.337
-103.336
-103.335
-103.333
-103.331
-103.327
-103.321
-103.315
-103.307
-103.297
-103.284
-103.267
-103.247
-103.222
-103.192
-103.154
-103.103
-103.036
-102.972
-102.903
-102.858
-104.519
-104.519
-104.519
-104.518
-104.517
-104.515
-104.512
-104.508
-104.502
-104.495
-104.486
-104.474
-104.46
-104.442
-104.419
-104.392
-104.359
-104.317
-104.263
-104.198
-104.137
-104.048
-104.052
-105.537
-105.537
-105.537
-105.536
-105.535
-105.534
-105.532
-105.529
-105.525
-105.519
-105.511
-105.5
-105.487
-105.469
-105.447
-105.418
-105.379
-105.33
-105.267
-105.19
-105.097
-104.977
-105.097
-106.605
-106.604
-106.604
-106.604
-106.603
-106.602
-106.599
-106.596
-106.591
-106.585
-106.576
-106.565
-106.551
-106.532
-106.507
-106.474
-106.431
-106.373
-106.296
-106.19
-106.038
-105.836
-105.631
-107.751
-107.751
-107.751
-107.751
-107.75
-107.749
-107.747
-107.744
-107.74
-107.734
-107.727
-107.717
-107.704
-107.687
-107.665
-107.637
-107.601
-107.555
-107.496
-107.419
-107.332
-107.275
-107.292
-108.834
-108.835
-108.834
-108.834
-108.833
-108.832
-108.83
-108.826
-108.822
-108.817
-108.809
-108.798
-108.785
-108.767
-108.744
-108.713
-108.672
-108.617
-108.541
-108.436
-108.306
-108.152
-107.799
-109.98
-109.98
-109.981
-109.979
-109.979
-109.978
-109.976
-109.974
-109.971
-109.966
-109.961
-109.953
-109.942
-109.928
-109.911
-109.888
-109.857
-109.819
-109.769
-109.709
-109.65
-109.572
-109.505
-111.058
-111.058
-111.058
-111.057
-111.056
-111.055
-111.053
-111.049
-111.045
-111.039
-111.03
-111.02
-111.005
-110.986
-110.962
-110.93
-110.888
-110.835
-110.767
-110.679
-110.574
-110.438
-110.403
-112.143
-112.143
-112.143
-112.142
-112.142
-112.14
-112.138
-112.136
-112.132
-112.126
-112.119
-112.109
-112.096
-112.079
-112.057
-112.027
-111.988
-111.938
-111.87
-111.779
-111.665
-111.526
-111.409
-113.276
-113.277
-113.276