/*--------------------------------*- C++ -*----------------------------------*\
  =========                 |
  \\      /  F ield         | OpenFOAM: The Open Source CFD Toolbox
   \\    /   O peration     | Website:  https://openfoam.org
    \\  /    A nd           | Version:  10
     \\/     M anipulation  |
\*---------------------------------------------------------------------------*/
FoamFile
{
    format      ascii;
    class       surfaceScalarField;
    location    "491";
    object      phi;
}
// * * * * * * * * * * * * * * * * * * * * * * * * * * * * * * * * * * * * * //

dimensions      [0 3 -1 0 0 0 0];

internalField   nonuniform List<scalar> 
154254
(
2.88263e-08
7.98464e-06
-8.03841e-06
6.30965e-07
3.10821e-05
-3.1713e-05
1.61788e-06
6.89493e-05
-6.99744e-05
2.86822e-06
0.000125506
-0.000126785
5.99994e-06
0.000197972
-0.000201134
8.57379e-06
0.000285981
-0.000288575
1.28562e-05
0.000390534
-0.000394844
1.82495e-05
0.000518402
-0.000523811
2.49688e-05
0.000673985
-0.000680728
3.30702e-05
0.000868117
-0.00087623
4.29311e-05
0.00110819
-0.00111807
5.46731e-05
0.0014053
-0.00141705
6.87486e-05
0.0017735
-0.00178759
8.56066e-05
0.00223411
-0.00225096
0.000103983
0.00280472
-0.0028231
0.000128842
0.00351084
-0.0035357
0.000156317
0.00438677
-0.00441425
0.000186659
0.00547048
-0.00550085
0.000224749
0.0067985
-0.00683658
0.000264529
0.00842531
-0.00846517
0.000312197
0.0104164
-0.010464
0.000360852
0.0128995
-0.012948
0.0161764
-0.0162041
0.000388752
9.05931e-08
-2.16746e-05
2.15587e-05
3.03832e-07
-8.31386e-05
8.28967e-05
6.32877e-07
-0.000174562
0.000174212
1.08068e-06
-0.000286651
0.000286187
1.28517e-06
-0.000408929
0.000408717
3.1529e-06
-0.000551881
0.000550005
4.17506e-06
-0.00071877
0.000717746
5.95129e-06
-0.000920714
0.000918934
5.80928e-06
-0.00116635
0.0011665
7.97328e-06
-0.00146743
0.00146526
1.07107e-05
-0.00183861
0.00183588
1.41387e-05
-0.00229098
0.00228755
1.83672e-05
-0.0028479
0.00284368
2.51408e-05
-0.00353294
0.00352617
2.95555e-05
-0.0043696
0.0043652
3.78626e-05
-0.00539559
0.00538729
4.54872e-05
-0.00664421
0.0066366
5.48925e-05
-0.00816371
0.00815431
6.55662e-05
-0.00999961
0.00998895
8.04956e-05
-0.0122362
0.0122212
9.89314e-05
-0.0149846
0.0149662
0.000130869
-0.0184157
0.0183837
-0.0227747
0.0227335
0.000172047
5.43773e-08
-2.16935e-05
1.94183e-07
-8.32376e-05
4.63846e-07
-0.0001748
8.7663e-07
-0.000287041
1.81625e-06
-0.000409852
2.28393e-06
-0.000552339
3.43022e-06
-0.000719906
4.91301e-06
-0.000922193
6.80704e-06
-0.00116824
1.06271e-05
-0.00147125
1.21136e-05
-0.00184009
1.57699e-05
-0.00229464
2.18537e-05
-0.00285398
2.5026e-05
-0.00353611
3.14153e-05
-0.00437598
3.88515e-05
-0.00540302
4.91543e-05
-0.00665451
5.63387e-05
-0.00817089
6.92268e-05
-0.0100125
8.28405e-05
-0.0122498
0.000106097
-0.0150079
0.000135763
-0.0184454
-0.0228187
0.00017989
-3.10175e-07
-6.54915e-06
7.27337e-06
-2.46022e-06
-2.55356e-05
2.81832e-05
-6.89532e-06
-5.68902e-05
6.18474e-05
-1.31243e-05
-0.00010482
0.000111466
-2.04752e-05
-0.000168429
0.000176119
-2.8901e-05
-0.000244513
0.000253161
-3.56117e-05
-0.000338153
0.000345052
-4.20321e-05
-0.000450697
0.000457239
-4.78102e-05
-0.000589229
0.000595137
-4.92455e-05
-0.000764196
0.000765704
-4.87034e-05
-0.000979261
0.000978818
-4.51391e-05
-0.00124854
0.00124503
-3.35866e-05
-0.00158648
0.00157501
-1.55444e-05
-0.00200764
0.00198967
1.09714e-05
-0.00253199
0.00250556
5.5189e-05
-0.00318932
0.00314521
0.000114317
-0.00400559
0.00394654
0.000192891
-0.00501885
0.00494038
0.000289074
-0.00626898
0.00617286
0.000409834
-0.00780487
0.00768427
0.000548825
-0.00968578
0.00954683
0.000710782
-0.0120368
0.011875
-0.0151575
0.0149757
0.000892584
1.28794e-05
-6.50213e-06
-6.48379e-06
3.15298e-05
-9.41435e-06
-9.52467e-06
6.57633e-05
-1.70069e-05
-1.7398e-05
0.000126351
-3.02661e-05
-3.11749e-05
0.000210162
-4.1298e-05
-4.24817e-05
0.000335178
-6.19601e-05
-6.35414e-05
0.000509142
-8.59023e-05
-8.77372e-05
0.000727972
-0.000108528
-0.000110369
0.00102133
-0.000145655
-0.000147208
0.00135737
-0.000167419
-0.000168661
0.00175759
-0.000199374
-0.000200367
0.00224578
-0.000243689
-0.000244324
0.00281311
-0.000283534
-0.00028329
0.00344886
-0.000318467
-0.000316939
0.00419648
-0.000375403
-0.000371782
0.00503176
-0.00042092
-0.000413945
0.00595125
-0.000465518
-0.000453621
0.00694529
-0.000506243
-0.000487327
0.00802333
-0.000553119
-0.000524664
0.00919099
-0.000603767
-0.000563259
0.0104506
-0.000658395
-0.000601053
0.0118159
-0.000720414
-0.000644276
-0.00079589
-0.000686429
0.0132989
1.6307e-07
6.4588e-06
-6.61742e-06
7.48966e-07
2.54011e-05
-2.5999e-05
2.0925e-06
5.69083e-05
-5.82357e-05
4.48215e-06
0.000105372
-0.000107767
8.59145e-06
0.00016934
-0.000173424
1.33974e-05
0.000248002
-0.000252802
1.97202e-05
0.000341936
-0.000348234
2.76552e-05
0.000457287
-0.000465206
3.66111e-05
0.000599304
-0.000608233
4.99329e-05
0.000775104
-0.000788402
6.48864e-05
0.000994692
-0.00100962
8.21312e-05
0.00126879
-0.00128601
0.000105483
0.00160888
-0.00163221
0.000131144
0.00203603
-0.00206165
0.000163773
0.00256601
-0.00259861
0.000201771
0.00322983
-0.00326778
0.000250811
0.00405275
-0.00410175
0.000306505
0.00507914
-0.00513481
0.000374527
0.00634048
-0.00640848
0.000455352
0.00788939
-0.00797026
0.000551745
0.00978759
-0.00988392
0.000667394
0.0121591
-0.0122748
0.015293
-0.0154285
0.000802862
-1.4657e-07
-3.78853e-07
-4.20782e-07
4.68466e-08
9.36899e-07
4.38367e-06
8.17122e-06
1.47485e-05
2.48374e-05
3.57527e-05
5.12015e-05
7.14695e-05
9.38798e-05
0.000122286
0.000156304
0.000196834
0.000243994
0.000304348
0.000375841
0.000460491
0.000562391
0.000684761
0.0008202
1.01755e-07
7.55956e-06
-7.72589e-06
6.20192e-07
2.9479e-05
-3.00923e-05
1.82e-06
6.55751e-05
-6.6856e-05
3.82598e-06
0.000119949
-0.000122042
6.0857e-06
0.000190772
-0.000193089
1.05803e-05
0.000274847
-0.000279394
1.53484e-05
0.000377169
-0.000381973
2.13746e-05
0.000501492
-0.00050755
2.77064e-05
0.000654132
-0.000660494
3.67409e-05
0.000842435
-0.000851489
4.90783e-05
0.00107552
-0.00108789
6.2418e-05
0.0013673
-0.00138065
7.72662e-05
0.00173035
-0.00174522
9.65816e-05
0.00217943
-0.00219876
0.000120993
0.00273804
-0.00276247
0.000146935
0.00343462
-0.00346057
0.000179215
0.00429669
-0.00432899
0.000216969
0.00536345
-0.00540122
0.00026097
0.00667542
-0.00671945
0.000311938
0.00828017
-0.00833114
0.000369872
0.0102479
-0.0103059
0.000437288
0.012703
-0.0127705
0.015944
-0.0160265
0.000519819
1.21059e-07
7.40499e-06
6.38547e-07
2.8902e-05
1.84738e-06
6.43298e-05
3.80506e-06
0.000117929
6.75437e-06
0.000187805
1.05766e-05
0.000270977
1.46702e-05
0.000373076
2.17673e-05
0.000494357
2.95662e-05
0.000646339
3.91019e-05
0.000832866
4.95359e-05
0.0010651
6.36354e-05
0.00135317
8.19546e-05
0.00171203
0.000102336
0.00215902
0.000125437
0.00271495
0.000154332
0.00340568
0.000188484
0.00426255
0.00022849
0.00532338
0.000275012
0.00662889
0.000327656
0.00822743
0.000390887
0.0101847
0.000464758
0.012629
0.0158565
0.000552143
1.3845e-07
7.24325e-06
7.249e-07
2.82912e-05
1.97379e-06
6.30483e-05
4.12196e-06
0.000115752
7.14782e-06
0.000184755
1.11532e-05
0.000266948
1.64021e-05
0.000367818
2.29025e-05
0.000487835
3.10858e-05
0.000638153
4.10482e-05
0.000822881
5.334e-05
0.00105281
6.82181e-05
0.00133827
8.62085e-05
0.00169406
0.000106445
0.00213876
0.000133729
0.00268769
0.000164173
0.0033752
0.000198551
0.0042282
0.000240347
0.00528152
0.000287364
0.00658188
0.000343059
0.00817164
0.000406891
0.0101208
0.000478849
0.0125569
0.0157768
0.000558538
1.85331e-07
7.04401e-06
8.87963e-07
2.75774e-05
2.34617e-06
6.15703e-05
4.80889e-06
0.000113277
8.21035e-06
0.000181339
1.27559e-05
0.000262395
1.93329e-05
0.000361235
2.56626e-05
0.000481498
3.45317e-05
0.000629281
4.54059e-05
0.000811997
5.87702e-05
0.00103945
7.49522e-05
0.00132208
9.31509e-05
0.00167588
0.000118037
0.00211386
0.000144714
0.00266102
0.000178005
0.00334189
0.000218614
0.00418758
0.000262869
0.00523723
0.00031646
0.00652826
0.000378921
0.00810913
0.00045229
0.0100474
0.000538799
0.0124704
0.0156686
0.000647086
2.04524e-07
6.84077e-06
9.72032e-07
2.68174e-05
2.53845e-06
6.00032e-05
5.12735e-06
0.000110699
9.46373e-06
0.000176999
1.36e-05
0.000258271
1.98076e-05
0.000355023
2.75197e-05
0.000473797
3.70394e-05
0.000619757
4.88697e-05
0.000800173
6.30801e-05
0.00102524
8.03159e-05
0.00130484
0.000101317
0.00165488
0.000126422
0.00208876
0.000156411
0.00263103
0.000192039
0.00330627
0.000232451
0.00414716
0.000281559
0.00518812
0.000338641
0.00647117
0.000405329
0.00804245
0.000480975
0.00997176
0.000571387
0.01238
0.0155657
0.000674371
2.1595e-07
1.01589e-06
2.77975e-06
5.70254e-06
9.28317e-06
1.47554e-05
2.15506e-05
3.01529e-05
4.16842e-05
5.34698e-05
6.90908e-05
8.7944e-05
0.000110611
0.000137734
0.000170162
0.00020867
0.000254076
0.000307398
0.000370083
0.000442291
0.000530061
0.000635218
0.000772314
1.04944e-07
-7.88875e-06
5.9605e-07
-3.06674e-05
1.70858e-06
-6.80411e-05
3.0947e-06
-0.000123506
6.25741e-06
-0.000196297
9.72307e-06
-0.000282907
1.41499e-05
-0.000386427
1.88307e-05
-0.000512261
2.67695e-05
-0.000668454
3.53557e-05
-0.0008601
4.45794e-05
-0.00109713
5.72774e-05
-0.00139337
7.26357e-05
-0.0017606
9.08941e-05
-0.00221704
0.000112685
-0.00278429
0.000138699
-0.00348661
0.000169403
-0.00435974
0.000203869
-0.0054357
0.000245733
-0.00676135
0.000294608
-0.00837999
0.000351499
-0.0103628
0.000417082
-0.0128361
-0.0161006
0.000491253
-1.13362e-05
1.81244e-05
-2.88926e-05
4.4853e-05
-4.12175e-05
7.36778e-05
-5.53369e-05
0.000124871
-8.0457e-05
0.00020108
-0.000103801
0.000276166
-0.000124423
0.000365713
-0.000142205
0.000474913
-0.000156282
0.000609335
-0.000166052
0.000775489
-0.000183712
0.000996618
-0.000191664
0.00125306
-0.000188324
0.00157181
-0.000180428
0.00198188
-0.000161389
0.00248663
-0.0001067
0.00309063
-1.99533e-05
0.00385988
8.25522e-05
0.00483796
0.000235582
0.00601988
0.000403208
0.00751671
0.000604951
0.00934512
0.000820338
0.0116597
0.0147019
0.00109419
6.75227e-08
4.46931e-07
1.31665e-06
3.28468e-06
4.93108e-06
7.98417e-06
1.20696e-05
1.81946e-05
2.37072e-05
3.17106e-05
4.27485e-05
5.4672e-05
6.75526e-05
8.46251e-05
0.000105044
0.000129275
0.000156297
0.000191057
0.000228199
0.00027347
0.000327089
0.00039061
0.0004665
5.25807e-08
9.13437e-06
-9.20842e-06
2.92447e-07
3.55475e-05
-3.58215e-05
8.40738e-07
7.83711e-05
-7.89444e-05
2.34297e-06
0.000140406
-0.000141939
2.91333e-06
0.000219987
-0.000220571
4.40388e-06
0.000312761
-0.000314273
6.40718e-06
0.000425092
-0.000427102
8.79762e-06
0.000559986
-0.000562391
1.18707e-05
0.000727118
-0.000730191
1.56432e-05
0.000930207
-0.000933989
2.01777e-05
0.00118312
-0.00118766
2.44712e-05
0.00149683
-0.00150113
3.25918e-05
0.00188288
-0.001891
3.98216e-05
0.00236316
-0.00237039
5.04586e-05
0.0029572
-0.00296783
6.19764e-05
0.00369272
-0.00370423
7.58206e-05
0.00460194
-0.00461577
9.22069e-05
0.00572246
-0.00573887
0.000110921
0.00709794
-0.00711664
0.000135083
0.00877352
-0.00879773
0.000164864
0.0108303
-0.01086
0.000206238
0.0133868
-0.0134283
0.0167462
-0.0168428
0.000302866
2.14411e-07
-8.28701e-06
6.31847e-07
-3.21778e-05
1.91356e-06
-7.13036e-05
3.95188e-06
-0.00012887
6.80641e-06
-0.000204022
1.12757e-05
-0.000293076
1.59538e-05
-0.000399546
2.06008e-05
-0.000528479
2.8472e-05
-0.000688618
3.57283e-05
-0.0008835
4.54868e-05
-0.00112785
5.74721e-05
-0.00142905
7.16392e-05
-0.0018018
8.85981e-05
-0.00226792
0.000108714
-0.00284327
0.000131315
-0.00355828
0.000159777
-0.00444277
0.000195162
-0.00553619
0.000233632
-0.00687511
0.000281518
-0.00851295
0.000338245
-0.0105208
0.000415861
-0.0130257
-0.016306
0.000517733
1.38502e-07
-8.4435e-06
6.77636e-07
-3.27503e-05
1.76242e-06
-7.24078e-05
3.60469e-06
-0.000130744
6.13179e-06
-0.000206558
9.4373e-06
-0.000296403
1.34861e-05
-0.000403598
1.8406e-05
-0.000533412
2.3396e-05
-0.00069361
3.17181e-05
-0.000891834
4.04603e-05
-0.0011366
4.96299e-05
-0.00143823
6.34288e-05
-0.00181562
7.83048e-05
-0.00228281
9.59355e-05
-0.00286092
0.000116901
-0.00357926
0.000141569
-0.00446747
0.000169141
-0.00556375
0.00020136
-0.00690738
0.000242003
-0.00855352
0.000288509
-0.0105674
0.000346009
-0.0130831
-0.016379
0.000418978
9.80521e-08
-8.58165e-06
5.24637e-07
-3.32486e-05
1.52609e-06
-7.34521e-05
3.16289e-06
-0.000132449
5.4966e-06
-0.00020891
8.43383e-06
-0.000299385
1.11977e-05
-0.000406364
1.67998e-05
-0.000539044
2.21857e-05
-0.000698988
2.88658e-05
-0.000898533
3.57263e-05
-0.00114345
4.65631e-05
-0.00144908
5.81667e-05
-0.0018272
7.05444e-05
-0.00229519
8.70081e-05
-0.00287735
0.000106252
-0.00359851
0.000129044
-0.00449024
0.000155556
-0.0055903
0.000186697
-0.00693851
0.000222485
-0.00858937
0.000264961
-0.0106098
0.000310642
-0.0131288
-0.0164302
0.000361903
9.62522e-08
-8.70613e-06
5.42384e-07
-3.37444e-05
1.56877e-06
-7.4508e-05
3.1774e-06
-0.000134101
5.39151e-06
-0.000211137
7.32677e-06
-0.000301346
1.16814e-05
-0.00041072
1.57417e-05
-0.00054312
2.09693e-05
-0.000704215
2.71144e-05
-0.00090469
3.4646e-05
-0.00115098
4.36005e-05
-0.00145804
5.30994e-05
-0.00183669
6.73746e-05
-0.00230948
8.12021e-05
-0.00289115
9.93463e-05
-0.00361667
0.000120656
-0.00451151
0.000145946
-0.00561564
0.000175748
-0.00696829
0.000210862
-0.00862458
0.000250131
-0.0106492
0.000301268
-0.01318
-0.0164901
0.000361131
1.70158e-08
-8.75217e-06
5.46459e-07
-3.43263e-05
9.90234e-07
-7.49812e-05
2.7955e-06
-0.000135951
3.9407e-06
-0.000212293
6.96706e-06
-0.000304398
9.81129e-06
-0.000413565
1.24123e-05
-0.000545735
1.78042e-05
-0.000709602
2.21285e-05
-0.000909022
3.00353e-05
-0.00115888
3.67936e-05
-0.00146481
4.77787e-05
-0.00184767
5.7848e-05
-0.00231955
7.30322e-05
-0.00290633
8.75754e-05
-0.00363121
0.000106709
-0.00453066
0.000127392
-0.00563633
0.000155611
-0.00699653
0.000184279
-0.00865324
0.000219597
-0.0106846
0.000259845
-0.0132203
-0.0165405
0.000310333
1.31958e-07
-8.88473e-06
2.30169e-07
-3.44294e-05
1.15058e-06
-7.58976e-05
2.14829e-06
-0.000136946
3.55429e-06
-0.000213692
5.46069e-06
-0.000306296
7.13107e-06
-0.000415228
1.13613e-05
-0.000549953
1.44001e-05
-0.000712636
2.05538e-05
-0.000915164
2.55059e-05
-0.00116383
3.29384e-05
-0.00147223
4.18369e-05
-0.00185657
5.24151e-05
-0.00233013
6.49398e-05
-0.00291888
7.98456e-05
-0.00364612
9.72691e-05
-0.00454811
0.000118123
-0.00565716
0.000139127
-0.00701756
0.000166173
-0.00868039
0.000200284
-0.0107186
0.000232754
-0.0132529
-0.0165794
0.000271726
8.9715e-08
-8.96526e-06
3.64236e-07
-3.46916e-05
6.32572e-07
-7.61512e-05
1.69551e-06
-0.000137991
3.31131e-06
-0.000215296
5.5251e-06
-0.000308492
9.19616e-06
-0.000418893
1.18544e-05
-0.000552594
1.62368e-05
-0.000717018
2.16659e-05
-0.00092058
2.80611e-05
-0.00117023
3.71322e-05
-0.0014813
4.49217e-05
-0.00186437
5.60143e-05
-0.00234123
6.90246e-05
-0.00293189
8.43715e-05
-0.00366147
0.000101363
-0.00456508
0.00012382
-0.00567965
0.000146604
-0.00704032
0.000176592
-0.00871039
0.000206943
-0.0107489
0.000246387
-0.0132924
-0.0166142
0.000281171
1.01841e-07
-9.06687e-06
5.31592e-07
-3.5115e-05
1.77681e-06
-7.74018e-05
2.7576e-06
-0.000138964
5.41427e-06
-0.000217962
7.22264e-06
-0.000310292
1.05374e-05
-0.000422224
1.45018e-05
-0.000556552
2.04199e-05
-0.000722955
2.4959e-05
-0.000925113
3.17237e-05
-0.00117702
3.99501e-05
-0.00148951
4.98069e-05
-0.00187425
6.13378e-05
-0.00235274
7.36719e-05
-0.00294423
9.1781e-05
-0.00367957
0.000111049
-0.00458435
0.000132728
-0.00570133
0.000163684
-0.00707124
0.000196241
-0.00874293
0.000241245
-0.0107938
0.00029519
-0.0133462
-0.0166983
0.000379393
6.18086e-08
4.90058e-07
1.44718e-06
2.88541e-06
4.89809e-06
7.36702e-06
1.02182e-05
1.36545e-05
1.77985e-05
2.28935e-05
2.89791e-05
3.62915e-05
4.48838e-05
5.53025e-05
6.82329e-05
8.14007e-05
9.89571e-05
0.000120152
0.000146821
0.000177614
0.000214174
0.000255026
0.000302828
5.48439e-08
-1.04695e-05
1.03445e-05
2.32792e-07
-4.04876e-05
4.02238e-05
3.07584e-07
-8.85286e-05
8.83689e-05
1.66622e-06
-0.000158023
0.000156598
2.81068e-06
-0.000242731
0.000241535
4.2737e-06
-0.000342465
0.000340966
5.10392e-06
-0.000460792
0.000459932
8.31617e-06
-0.000606792
0.000603557
9.88034e-06
-0.000781405
0.000779823
1.42831e-05
-0.000999733
0.000995317
1.79412e-05
-0.00126801
0.00126434
2.15286e-05
-0.00159677
0.00159318
2.71091e-05
-0.00200721
0.00200162
3.38381e-05
-0.00251241
0.00250568
4.19642e-05
-0.00313771
0.00312959
5.18105e-05
-0.00391081
0.00390097
6.51314e-05
-0.00486536
0.00485205
7.98531e-05
-0.00603673
0.00602201
9.92436e-05
-0.0074718
0.00745242
0.000121661
-0.00921927
0.0091968
0.000149396
-0.0113535
0.0113258
0.000188646
-0.0140066
0.0139672
-0.0174397
0.0173843
0.000243986
1.02961e-07
-1.05504e-05
4.06478e-07
-4.07667e-05
1.34641e-06
-8.94423e-05
1.60377e-06
-0.000158262
2.64664e-06
-0.00024376
3.93596e-06
-0.000343743
5.50582e-06
-0.000462356
7.41084e-06
-0.000608687
1.08042e-05
-0.000784798
1.33544e-05
-0.00100227
1.56075e-05
-0.00127026
2.05943e-05
-0.00160175
2.5279e-05
-0.0020119
3.09156e-05
-0.00251805
3.76708e-05
-0.00314449
4.58245e-05
-0.00391896
5.42832e-05
-0.00487383
6.73793e-05
-0.00604982
7.97243e-05
-0.00748416
9.65005e-05
-0.00923604
0.000118144
-0.0113752
0.000142938
-0.0140314
-0.0174685
0.000171615
7.06332e-09
-9.24321e-06
1.43082e-07
-3.59915e-05
4.59928e-07
-7.92976e-05
1.04617e-06
-0.000142554
1.88935e-06
-0.000221439
3.1032e-06
-0.000315502
4.56113e-06
-0.000428576
6.6163e-06
-0.000564455
8.06577e-06
-0.000731653
1.22058e-05
-0.000938137
1.60491e-05
-0.00119151
2.09695e-05
-0.00150605
2.48876e-05
-0.00189492
3.24787e-05
-0.00237799
3.8485e-05
-0.00297386
4.72317e-05
-0.00371296
5.8448e-05
-0.00462703
6.96698e-05
-0.00575007
8.13754e-05
-0.0071284
9.20662e-05
-0.00880837
9.06359e-05
-0.0108587
7.90291e-05
-0.0134167
-0.0167696
5.73487e-06
1.69233e-07
-9.4122e-06
5.18745e-07
-3.63453e-05
1.19049e-06
-7.99636e-05
1.63559e-06
-0.000143005
3.71527e-06
-0.000223511
5.43165e-06
-0.000317225
7.68829e-06
-0.000430823
1.03672e-05
-0.000567142
1.36622e-05
-0.000734938
1.74747e-05
-0.000941959
2.24451e-05
-0.00119647
2.84178e-05
-0.00151204
3.55107e-05
-0.00190201
4.26201e-05
-0.00238512
5.44415e-05
-0.00298568
6.66217e-05
-0.00372517
8.19171e-05
-0.00464234
0.000100653
-0.00576884
0.000123691
-0.00715146
0.00015227
-0.00883702
0.000192138
-0.0108985
0.000247789
-0.0134724
-0.0168385
0.000316737
4.96136e-08
-9.47181e-06
2.88477e-07
-3.6596e-05
8.39263e-07
-8.05264e-05
1.81365e-06
-0.000143989
2.11522e-06
-0.000223821
4.13037e-06
-0.000319246
6.61419e-06
-0.000433311
8.49178e-06
-0.000569024
1.15225e-05
-0.000737974
1.38021e-05
-0.000944244
1.89217e-05
-0.00120159
2.2893e-05
-0.00151602
2.99238e-05
-0.00190905
3.84925e-05
-0.0023937
4.55577e-05
-0.00299275
5.57622e-05
-0.00373539
6.79686e-05
-0.00465456
8.25381e-05
-0.00578343
9.98717e-05
-0.00716882
0.000120158
-0.00885729
0.000144456
-0.0109229
0.000171573
-0.0134995
-0.0168678
0.000200889
-2.60108e-08
-9.443e-06
3.92719e-07
-3.70131e-05
6.26991e-07
-8.07559e-05
2.01413e-06
-0.000145376
3.18616e-06
-0.000224989
4.49588e-06
-0.000320557
5.6323e-06
-0.000434445
8.70544e-06
-0.0005721
1.06563e-05
-0.000739924
1.61559e-05
-0.000949748
1.80876e-05
-0.00120353
2.40903e-05
-0.00152203
2.90554e-05
-0.00191401
3.63159e-05
-0.00240097
4.6247e-05
-0.00300269
5.6816e-05
-0.00374598
6.9548e-05
-0.00466731
8.48179e-05
-0.00579873
0.000102779
-0.00718679
0.000124593
-0.00887912
0.000152003
-0.0109502
0.000183519
-0.013531
-0.016905
0.000220783
1.30322e-07
-9.57984e-06
1.79491e-07
-3.70731e-05
1.05783e-06
-8.1641e-05
9.0922e-07
-0.000145237
2.57755e-06
-0.000226661
4.20735e-06
-0.000322193
5.7654e-06
-0.000436004
8.16543e-06
-0.000574504
1.1695e-05
-0.000743455
1.3768e-05
-0.000951825
1.89407e-05
-0.0012087
2.3691e-05
-0.00152679
2.80385e-05
-0.00191836
3.49111e-05
-0.00240785
4.32053e-05
-0.00301099
5.32068e-05
-0.00375599
6.48854e-05
-0.004679
7.93143e-05
-0.00581317
9.66248e-05
-0.00720411
0.000117265
-0.00889974
0.000141105
-0.0109741
0.000169221
-0.013559
-0.0169369
0.00020112
6.2148e-08
-9.64206e-06
3.06343e-07
-3.7321e-05
5.00365e-07
-8.18329e-05
1.66968e-06
-0.00014641
2.88427e-06
-0.000227872
4.03194e-06
-0.000323343
5.90748e-06
-0.000437875
7.7362e-06
-0.000576334
1.02721e-05
-0.000745987
1.24272e-05
-0.000953982
1.71469e-05
-0.00121342
2.17132e-05
-0.00153136
2.86328e-05
-0.00192528
3.50513e-05
-0.00241428
4.20331e-05
-0.00301798
5.30975e-05
-0.00376707
6.37448e-05
-0.00468966
7.94402e-05
-0.00582888
9.69268e-05
-0.00722162
0.000116297
-0.00891912
0.000141696
-0.0109995
0.000174298
-0.0135917
-0.0169769
0.000214229
8.5629e-08
-9.72512e-06
3.31821e-07
-3.7568e-05
7.06402e-07
-8.22014e-05
1.5665e-06
-0.00014727
2.43052e-06
-0.000228729
3.03541e-06
-0.000323948
5.33984e-06
-0.000440173
7.28897e-06
-0.000578281
9.68545e-06
-0.000748378
1.26054e-05
-0.0009569
1.51833e-05
-0.00121599
1.94887e-05
-0.00153566
2.44281e-05
-0.00193022
3.22097e-05
-0.00242206
3.83988e-05
-0.00302416
4.92033e-05
-0.00377788
6.03545e-05
-0.00470081
7.33348e-05
-0.00584187
8.91539e-05
-0.00723744
0.000109077
-0.00893906
0.000130556
-0.011021
0.000152626
-0.0136138
-0.0170058
0.000181548
1.38127e-07
-9.85603e-06
4.21562e-07
-3.78426e-05
6.26404e-07
-8.23966e-05
1.82504e-06
-0.00014846
2.30363e-06
-0.000229201
4.2299e-06
-0.000325868
5.08754e-06
-0.000441026
7.05168e-06
-0.00058024
9.46174e-06
-0.000750786
1.33386e-05
-0.000960772
1.69345e-05
-0.00121959
2.12944e-05
-0.00154002
2.65833e-05
-0.00193551
3.15766e-05
-0.00242706
4.20388e-05
-0.00303463
4.87607e-05
-0.0037846
6.15021e-05
-0.00471355
7.39543e-05
-0.00585434
9.15727e-05
-0.00725506
0.00011081
-0.00895834
0.000131885
-0.0110421
0.000159622
-0.0136415
-0.0170329
0.000186791
7.19305e-08
-9.92458e-06
3.1666e-07
-3.8085e-05
7.90426e-07
-8.28649e-05
1.55195e-06
-0.00014922
3.15361e-06
-0.000230798
3.81109e-06
-0.000326523
6.16497e-06
-0.000443376
8.15309e-06
-0.000582227
1.05813e-05
-0.000753211
1.26111e-05
-0.000962801
1.71855e-05
-0.00122416
2.02346e-05
-0.00154307
2.69062e-05
-0.00194218
3.22144e-05
-0.00243236
4.12245e-05
-0.00304364
5.07551e-05
-0.00379413
6.06827e-05
-0.00472349
7.58754e-05
-0.00586953
9.24489e-05
-0.00727165
0.000112451
-0.00897832
0.000138179
-0.0110678
0.000166425
-0.0136697
-0.0170713
0.000204797
3.70155e-08
-9.96489e-06
2.00993e-07
-3.82597e-05
6.30986e-07
-8.32961e-05
1.34153e-06
-0.000149942
2.3582e-06
-0.000231813
3.63686e-06
-0.000327812
5.23173e-06
-0.000444967
7.17282e-06
-0.000584177
9.56111e-06
-0.000755593
1.33839e-05
-0.000966633
1.46832e-05
-0.00122545
2.02548e-05
-0.00154865
2.54759e-05
-0.00194739
3.15046e-05
-0.0024384
3.8019e-05
-0.00305014
4.8546e-05
-0.00380465
5.97558e-05
-0.00473469
7.32014e-05
-0.00588298
8.93423e-05
-0.00728778
0.000108178
-0.00899714
0.000130422
-0.0110901
0.000155557
-0.0136947
-0.0170943
0.000178613
-4.00398e-08
-9.93424e-06
9.84676e-08
-3.84183e-05
9.18026e-07
-8.4124e-05
1.1163e-06
-0.00015016
2.83657e-06
-0.000233535
4.13342e-06
-0.000329127
4.78984e-06
-0.00044562
6.69574e-06
-0.0005861
9.05676e-06
-0.000757947
1.19276e-05
-0.00096952
1.67102e-05
-0.00123022
2.10162e-05
-0.00155296
2.49219e-05
-0.00195128
3.27637e-05
-0.00244624
4.03026e-05
-0.00305765
4.97939e-05
-0.00381414
6.13711e-05
-0.00474622
7.54028e-05
-0.00589703
9.09705e-05
-0.00730332
0.000113618
-0.00901988
0.000138743
-0.0111151
0.000171547
-0.0137276
-0.0171349
0.000212183
3.7744e-08
-9.99333e-06
2.25496e-07
-3.86423e-05
9.82159e-07
-8.49036e-05
1.72193e-06
-0.000150935
1.42348e-06
-0.000233247
4.11615e-06
-0.000331846
4.8759e-06
-0.000446381
6.67987e-06
-0.000587925
8.91179e-06
-0.000760173
1.16196e-05
-0.000972244
1.47263e-05
-0.00123332
1.88264e-05
-0.00155707
2.38466e-05
-0.00195628
2.99447e-05
-0.00245234
3.73709e-05
-0.00306506
4.63509e-05
-0.00382312
5.88377e-05
-0.00475869
7.03342e-05
-0.00590853
8.75227e-05
-0.0073205
0.000104592
-0.00903695
0.000126489
-0.011137
0.000151046
-0.0137521
-0.0171628
0.000178912
1.12289e-07
-1.01149e-05
3.04291e-07
-3.88546e-05
4.69851e-08
-8.46544e-05
1.24712e-06
-0.000152157
2.69947e-06
-0.000234701
2.28143e-06
-0.000331447
5.36495e-06
-0.00044946
7.09492e-06
-0.000589672
8.13806e-06
-0.000761207
1.07527e-05
-0.00097487
1.52558e-05
-0.00123781
1.79206e-05
-0.00155974
2.41793e-05
-0.00196253
2.8699e-05
-0.00245686
3.74363e-05
-0.00307378
4.47039e-05
-0.00383038
5.50462e-05
-0.00476905
6.95515e-05
-0.00592302
8.48039e-05
-0.00733578
0.000101248
-0.0090533
0.000122419
-0.0111582
0.000148103
-0.0137777
-0.0171931
0.000178408
-9.27388e-08
-1.00265e-05
1.94474e-08
-3.89814e-05
1.02538e-06
-8.56608e-05
1.03558e-06
-0.000152185
1.2875e-06
-0.000234946
2.96641e-06
-0.000333142
4.29648e-06
-0.000450779
5.95481e-06
-0.000591342
9.17204e-06
-0.000764409
1.05841e-05
-0.000976289
1.38023e-05
-0.00124101
1.77288e-05
-0.00156367
2.25662e-05
-0.00196735
2.84549e-05
-0.00246275
3.41521e-05
-0.00307947
4.56454e-05
-0.00384187
5.48649e-05
-0.00477827
6.70795e-05
-0.00593524
8.19282e-05
-0.00735064
0.000102615
-0.00907401
0.000121155
-0.0111767
0.000141158
-0.0137977
-0.0172125
0.000160579
1.00799e-07
-1.01322e-05
2.66327e-07
-3.91652e-05
2.79187e-07
-8.56735e-05
8.58844e-07
-0.000152785
2.99704e-06
-0.000237076
3.43868e-06
-0.000333599
3.90178e-06
-0.000451228
5.62198e-06
-0.000593072
7.82741e-06
-0.000766597
1.17312e-05
-0.000980196
1.38425e-05
-0.0012431
1.92417e-05
-0.00156907
2.40035e-05
-0.00197209
3.01325e-05
-0.00246887
3.75939e-05
-0.00308691
4.53579e-05
-0.00384963
5.74732e-05
-0.00479037
7.0391e-05
-0.00594817
8.41913e-05
-0.00736444
0.000101067
-0.00909092
0.000126696
-0.0112024
0.000153279
-0.0138242
-0.0172496
0.000190429
6.96198e-08
-1.02072e-05
4.80631e-07
-3.96012e-05
6.76505e-07
-8.58681e-05
1.96944e-06
-0.000154102
2.31566e-06
-0.000237412
4.288e-06
-0.000335589
5.14752e-06
-0.000452073
7.08356e-06
-0.000595018
1.03797e-05
-0.000769876
1.33097e-05
-0.000983129
1.58818e-05
-0.00124566
1.99381e-05
-0.00157312
2.5462e-05
-0.0019776
3.29768e-05
-0.00247638
4.06866e-05
-0.0030946
4.83661e-05
-0.00385731
5.94171e-05
-0.0048014
7.25811e-05
-0.00596135
8.95883e-05
-0.00738143
0.000107966
-0.00910932
0.000128831
-0.0112233
0.000152718
-0.013848
-0.0172603
0.000163491
1.44202e-07
-1.03644e-05
2.82313e-07
-3.97742e-05
1.21098e-06
-8.68045e-05
1.72059e-06
-0.000154641
2.9416e-06
-0.000238628
4.39243e-06
-0.000337057
6.16677e-06
-0.000453837
9.11572e-06
-0.000597976
1.08086e-05
-0.000771558
1.39099e-05
-0.000986234
1.86987e-05
-0.00125044
2.2232e-05
-0.00157666
2.75462e-05
-0.0019829
3.45783e-05
-0.00248342
4.27921e-05
-0.0031028
5.39685e-05
-0.0038685
6.74076e-05
-0.00481482
8.05814e-05
-0.00597455
9.7381e-05
-0.00739822
0.000121387
-0.00913335
0.000150352
-0.0112522
0.000186986
-0.0138847
-0.0173131
0.000239758
5.83727e-08
-1.04349e-05
2.63427e-07
-4.00113e-05
7.43976e-07
-8.72922e-05
1.94269e-06
-0.000155867
2.35344e-06
-0.000239036
3.50504e-06
-0.000338226
5.69249e-06
-0.000456017
6.59858e-06
-0.000598893
8.73015e-06
-0.000773683
1.13203e-05
-0.000988833
1.45268e-05
-0.00125364
1.95003e-05
-0.00158164
2.31468e-05
-0.00198654
3.00178e-05
-0.0024903
3.54164e-05
-0.0031082
4.36717e-05
-0.00387677
5.36202e-05
-0.00482477
6.71507e-05
-0.00598811
8.10725e-05
-0.00741215
9.79224e-05
-0.00915026
0.000117636
-0.011272
0.000138039
-0.013905
-0.0173384
0.000163437
-2.91058e-08
-1.04119e-05
7.69026e-08
-4.01347e-05
3.65578e-07
-8.7583e-05
8.31318e-07
-0.000156347
2.06768e-06
-0.000240268
2.92569e-06
-0.00033909
3.30314e-06
-0.000456387
5.58796e-06
-0.000601179
7.44485e-06
-0.000775533
8.58598e-06
-0.000989974
1.27312e-05
-0.00125778
1.63129e-05
-0.00158522
2.06843e-05
-0.00199091
2.45238e-05
-0.00249415
3.23581e-05
-0.00311603
3.99903e-05
-0.00388441
4.75122e-05
-0.00483231
5.96906e-05
-0.0060003
7.25871e-05
-0.00742506
8.77579e-05
-0.0091654
0.000103273
-0.0112875
0.000123412
-0.0139251
-0.0173555
0.000140423
4.67661e-08
-1.04575e-05
6.85536e-08
-4.01573e-05
2.24619e-07
-8.77344e-05
-4.12799e-08
-0.000156081
4.32068e-07
-0.000240735
1.34361e-06
-0.000339998
3.21909e-06
-0.000458257
3.87719e-06
-0.000601831
5.56779e-06
-0.000777221
9.1459e-06
-0.000993547
1.08723e-05
-0.00125951
1.45059e-05
-0.00158885
2.00167e-05
-0.00199643
2.41523e-05
-0.00249829
3.1714e-05
-0.0031236
3.9322e-05
-0.00389204
4.83579e-05
-0.00484135
5.59578e-05
-0.00600793
7.14651e-05
-0.00744057
8.39923e-05
-0.00917798
0.000101787
-0.0113053
0.000119502
-0.0139428
-0.0173692
0.000133202
-1.14578e-07
-4.59024e-08
5.85788e-07
1.10873e-06
1.90462e-06
2.87881e-06
4.54929e-06
6.28161e-06
8.87733e-06
1.06509e-05
1.54749e-05
1.97985e-05
2.4982e-05
3.2376e-05
3.83613e-05
4.72975e-05
5.79977e-05
7.20831e-05
8.39358e-05
0.000102796
0.000123246
0.000147636
0.000162757
4.01576e-08
-1.16907e-05
1.16619e-05
1.82671e-07
-4.52434e-05
4.5119e-05
4.27279e-07
-9.79466e-05
9.77165e-05
8.0339e-07
-0.000172817
0.000172459
1.27762e-06
-0.000262104
0.000261643
2.70453e-06
-0.000368985
0.000367571
2.59633e-06
-0.000494051
0.000494169
4.49598e-06
-0.000646269
0.000644377
4.60279e-06
-0.000832222
0.000832126
5.95499e-06
-0.00106092
0.00105957
7.56706e-06
-0.00134194
0.00134034
9.47931e-06
-0.00169046
0.00168855
1.1764e-05
-0.00211841
0.00211613
1.44704e-05
-0.0026474
0.00264469
1.77231e-05
-0.00330257
0.00329931
2.16532e-05
-0.00410979
0.00410584
2.63753e-05
-0.00510467
0.00509993
3.24597e-05
-0.00632809
0.00632199
4.14111e-05
-0.00782506
0.00781609
4.92304e-05
-0.00964434
0.00963653
6.24993e-05
-0.0118635
0.0118502
7.70871e-05
-0.0146132
0.0145986
-0.0181477
0.0181333
9.15112e-05
3.38518e-08
-1.17227e-05
-9.69485e-08
-4.5107e-05
4.53809e-08
-9.80881e-05
3.2543e-07
-0.000173092
7.59155e-07
-0.000262538
1.34899e-06
-0.00036957
2.04404e-06
-0.000494748
2.89969e-06
-0.000647121
3.91619e-06
-0.00083324
5.11565e-06
-0.00106212
6.53487e-06
-0.00134336
8.22029e-06
-0.00169214
1.02205e-05
-0.0021204
1.38669e-05
-0.00265104
1.54049e-05
-0.00330411
1.89394e-05
-0.00411331
2.33508e-05
-0.00510907
2.85462e-05
-0.00633327
3.49832e-05
-0.00783148
4.2774e-05
-0.00965212
5.16854e-05
-0.0118724
5.90067e-05
-0.0146205
-0.0181563
6.75864e-05
2.15297e-08
-1.17528e-05
-1.1182e-07
-4.49908e-05
3.76808e-07
-9.85839e-05
1.38793e-07
-0.000172865
1.87833e-06
-0.000264279
1.62207e-06
-0.000369319
1.42001e-06
-0.000494545