/*--------------------------------*- C++ -*----------------------------------*\
  =========                 |
  \\      /  F ield         | OpenFOAM: The Open Source CFD Toolbox
   \\    /   O peration     | Website:  https://openfoam.org
    \\  /    A nd           | Version:  10
     \\/     M anipulation  |
\*---------------------------------------------------------------------------*/
FoamFile
{
    format      ascii;
    class       volVectorField;
    location    "491";
    object      U;
}
// * * * * * * * * * * * * * * * * * * * * * * * * * * * * * * * * * * * * * //

dimensions      [0 1 -1 0 0 0 0];

internalField   nonuniform List<vector> 
96890
(
(0.792476 -0.106486 2.69625e-23)
(2.58227 -0.348119 -9.62775e-23)
(4.76926 -0.644613 1.02261e-22)
(7.23058 -0.975269 1.95589e-22)
(9.53063 -1.28418 -6.75837e-19)
(11.4394 -1.54025 5.35297e-19)
(13.0283 -1.75149 4.3456e-19)
(14.3986 -1.93269 -3.65531e-19)
(15.6225 -2.09343 6.04755e-22)
(16.7492 -2.23955 2.7947e-19)
(17.8098 -2.37559 -2.5171e-19)
(18.8248 -2.50407 2.27948e-19)
(19.8089 -2.6268 -2.02996e-19)
(20.774 -2.7446 -1.86254e-19)
(21.7272 -2.85884 1.68805e-19)
(22.6718 -2.96897 1.45893e-19)
(23.6058 -3.07489 -1.34794e-19)
(24.52 -3.1745 0)
(25.3963 -3.26542 0)
(26.2207 -3.34534 -8.85756e-20)
(27.012 -3.4173 6.40602e-20)
(27.867 -3.50076 -8.20289e-21)
(29.1109 -3.58607 2.42176e-20)
(2.16131 -0.0767395 2.56754e-19)
(6.91163 -0.24516 -4.11873e-19)
(12.1401 -0.430403 3.76202e-19)
(16.5414 -0.586234 6.46573e-23)
(19.7254 -0.698768 -2.06711e-19)
(22.117 -0.783115 0)
(24.0332 -0.850471 0)
(25.6609 -0.907332 -1.07657e-22)
(27.1022 -0.957289 9.60285e-20)
(28.4152 -1.00237 3.23585e-22)
(29.6382 -1.04375 -7.82222e-20)
(30.795 -1.08233 -2.75577e-22)
(31.9012 -1.11849 6.46172e-20)
(32.966 -1.1525 -5.85146e-20)
(33.9919 -1.18439 -3.61872e-24)
(34.9733 -1.21387 0)
(35.8972 -1.24043 -1.31373e-21)
(36.7481 -1.26348 1.13053e-21)
(37.5194 -1.28307 3.93817e-21)
(38.2552 -1.29977 2.84529e-20)
(39.0403 -1.31437 -3.36802e-20)
(39.9699 -1.32611 6.51063e-21)
(41.1944 -1.35081 0)
(2.16558 -0.0750599 -5.15893e-19)
(6.92373 -0.239994 1.02665e-24)
(12.1585 -0.421268 3.77234e-19)
(16.5631 -0.573653 -2.8341e-19)
(19.7505 -0.68374 4.14651e-19)
(22.1479 -0.766348 -3.19284e-19)
(24.0686 -0.832124 7.17476e-24)
(25.6997 -0.887608 7.92665e-24)
(27.1431 -0.936312 8.93067e-24)
(28.4585 -0.980231 1.7221e-19)
(29.6835 -1.02054 -1.55062e-19)
(30.8419 -1.05808 1.66889e-23)
(31.9494 -1.09322 1.29552e-19)
(33.0148 -1.12621 -5.95323e-20)
(34.0402 -1.15701 1.67136e-21)
(35.0201 -1.18542 4.77481e-20)
(35.9417 -1.21092 1.27238e-21)
(36.7902 -1.23302 -3.98331e-23)
(37.5593 -1.25169 -3.35148e-20)
(38.298 -1.26747 0)
(39.0936 -1.28114 3.38075e-21)
(40.0379 -1.29356 -2.61307e-20)
(41.2683 -1.31088 2.51151e-20)
(0.654128 -0.0911125 8.37366e-23)
(2.12372 -0.297633 -1.18844e-18)
(3.92073 -0.551099 1.33647e-18)
(5.99299 -0.845256 0)
(8.00245 -1.132 -5.32377e-22)
(9.6935 -1.37433 8.71253e-19)
(11.106 -1.57759 -7.0278e-19)
(12.3354 -1.75535 -5.88262e-19)
(13.449 -1.91544 1.01982e-18)
(14.4904 -2.06384 -4.5207e-19)
(15.4874 -2.20425 0)
(16.4592 -2.33794 -1.42083e-21)
(17.4201 -2.46615 -3.33384e-19)
(18.3796 -2.58801 3.10876e-19)
(19.3396 -2.70578 -4.49182e-21)
(20.3078 -2.81151 -4.03376e-21)
(21.2779 -2.90484 1.39192e-20)
(22.2349 -2.98269 0)
(23.1645 -3.0409 0)
(24.0473 -3.07691 9.12685e-21)
(24.8965 -3.08791 0)
(25.8092 -3.09604 1.36716e-20)
(27.1094 -3.16107 -2.51488e-20)
(0.0219411 -0.0047032 0)
(0.0579205 -0.0132164 0)
(0.099366 -0.0234895 0)
(0.150464 -0.0348009 0)
(0.194209 -0.0416944 0)
(0.204447 -0.0439251 0)
(0.328215 -0.0349064 0)
(0.496668 -0.0205712 0)
(0.695195 -0.007131 0)
(0.951733 0.004711 0)
(1.24086 0.012502 0)
(1.59322 0.0166656 0)
(2.01132 0.0171326 0)
(2.49131 0.0146809 0)
(3.04244 0.00954667 0)
(3.67285 0.00147138 0)
(4.37178 -0.00931522 0)
(5.13293 -0.0226764 0)
(5.95961 -0.0377432 0)
(6.85014 -0.0518321 0)
(7.82909 -0.0679089 0)
(8.81309 -0.0789762 0)
(10.1531 -0.102399 0)
(0.640879 -0.0887843 -8.09172e-23)
(2.10836 -0.292598 1.11104e-18)
(3.93605 -0.545081 5.02462e-24)
(6.07337 -0.839738 -1.22859e-18)
(8.16288 -1.12799 -4.93366e-22)
(9.93867 -1.37098 0)
(11.4302 -1.57353 6.5592e-22)
(12.7285 -1.74788 0)
(13.8996 -1.90332 9.09851e-22)
(14.9878 -2.04517 -8.02581e-22)
(16.0214 -2.17795 0)
(17.0206 -2.30309 -3.39572e-19)
(17.9991 -2.4226 3.06235e-19)
(18.967 -2.53719 -4.33586e-21)
(19.9308 -2.64706 0)
(20.8967 -2.75206 2.23836e-19)
(21.8651 -2.85149 -2.04529e-19)
(22.8248 -2.94235 5.28926e-21)
(23.7534 -3.02085 4.02509e-22)
(24.6311 -3.08242 -3.49679e-22)
(25.4709 -3.12864 1.40643e-20)
(26.3698 -3.17021 1.12148e-19)
(27.6417 -3.23022 -9.23163e-20)
(0.639727 -0.0889172 -2.79533e-24)
(2.0961 -0.292316 0)
(3.90033 -0.543624 1.30712e-18)
(6.00414 -0.83664 -1.28861e-18)
(8.06105 -1.12217 -1.08204e-18)
(9.80754 -1.36352 8.56619e-19)
(11.2769 -1.5654 6.90177e-19)
(12.5586 -1.73902 5.26178e-23)
(13.717 -1.89428 -4.98982e-19)
(14.7963 -2.03596 8.71308e-22)
(15.8236 -2.16792 3.94435e-19)
(16.8172 -2.29231 -3.54617e-19)
(17.7907 -2.41073 0)
(18.7536 -2.52367 2.9186e-19)
(19.7125 -2.63215 1.85218e-22)
(20.6722 -2.73558 -2.3488e-19)
(21.6331 -2.83391 -2.49336e-22)
(22.5866 -2.92329 -1.81042e-19)
(23.5119 -2.99987 1.45713e-19)
(24.3882 -3.05773 1.4087e-19)
(25.2272 -3.09834 -1.4063e-20)
(26.1267 -3.13833 -1.3477e-20)
(27.411 -3.19458 -7.29625e-20)
(0.755559 -0.102899 1.24723e-22)
(2.46166 -0.335681 -2.12998e-22)
(4.552 -0.619892 2.37241e-22)
(6.92943 -0.94291 0)
(9.17486 -1.24686 3.86382e-22)
(11.0438 -1.49894 3.05542e-22)
(12.6003 -1.70808 0)
(13.9469 -1.88721 4.00134e-22)
(15.1543 -2.04654 0)
(16.2689 -2.19171 0)
(17.3212 -2.32722 -1.09696e-21)
(18.3321 -2.45526 -2.56665e-19)
(19.3163 -2.5775 2.34033e-19)
(20.2837 -2.69516 2.13193e-19)
(21.2406 -2.80864 -1.90185e-19)
(22.1905 -2.91796 -2.59898e-21)
(23.1333 -3.02251 -4.58867e-21)
(24.061 -3.12086 -1.30337e-19)
(24.9538 -3.20965 1.04803e-19)
(25.7944 -3.28622 -1.01501e-19)
(26.6003 -3.35122 8.35039e-20)
(27.4775 -3.4208 3.88975e-22)
(28.745 -3.53308 0)
(0.739966 -0.100997 -1.29866e-22)
(2.41299 -0.329792 -4.44488e-24)
(4.46627 -0.609643 4.95739e-24)
(6.80997 -0.928685 -2.43997e-22)
(9.03445 -1.23058 -3.8825e-22)
(10.8889 -1.48198 -3.06963e-22)
(12.4375 -1.68941 0)
(13.7772 -1.86826 -4.35022e-22)
(14.9788 -2.02694 -3.77798e-19)
(16.0895 -2.17184 3.33174e-19)
(17.1391 -2.30682 0)
(18.1484 -2.43434 -1.03367e-21)
(19.1319 -2.5562 0)
(20.0995 -2.67351 -1.69216e-21)
(21.0576 -2.78645 0)
(22.0096 -2.89504 2.83196e-21)
(22.9557 -2.99904 -5.00466e-21)
(23.8877 -3.09663 4.35342e-21)
(24.7857 -3.1845 -7.4591e-21)
(25.6316 -3.25961 -9.37613e-20)
(26.4424 -3.32335 1.63454e-19)
(27.3229 -3.3905 -7.94372e-20)
(28.5906 -3.49093 1.89025e-20)
(0.724871 -0.0992357 1.35175e-22)
(2.36595 -0.324411 1.13203e-22)
(4.38324 -0.600196 -1.26408e-22)
(6.69342 -0.915669 4.99795e-22)
(8.89495 -1.21542 -4.22542e-22)
(10.7338 -1.46535 0)
(12.2717 -1.67179 0)
(13.6025 -1.85028 4.36031e-22)
(14.7973 -2.00789 -3.93846e-19)
(15.903 -2.15241 3.48001e-19)
(16.9492 -2.28689 0)
(17.9563 -2.41419 -1.12167e-21)
(18.9385 -2.53576 0)
(19.9062 -2.65244 -1.83746e-21)
(20.8649 -2.76501 -2.07798e-19)
(21.8192 -2.87319 1.83059e-19)
(22.7697 -2.97687 1.69467e-19)
(23.7068 -3.07424 -2.90538e-19)
(24.6106 -3.16183 1.30098e-19)
(25.463 -3.23666 0)
(26.2806 -3.30061 1.1217e-20)
(27.1687 -3.37094 -8.29988e-20)
(28.4407 -3.48031 3.89661e-20)
(0.707097 -0.0971317 -1.40663e-22)
(2.31161 -0.317894 0)
(4.28932 -0.588804 0)
(6.56355 -0.90006 -1.06919e-18)
(8.74209 -1.19715 8.88152e-19)
(10.5664 -1.44527 0)
(12.0919 -1.65064 0)
(13.4146 -1.82782 0)
(14.6037 -1.9845 0)
(15.7045 -2.12818 6.95297e-22)
(16.7472 -2.26178 1.29602e-21)
(17.7519 -2.38824 2.29483e-21)
(18.7331 -2.50874 -2.6588e-19)
(19.7003 -2.6244 2.42475e-19)
(20.66 -2.73584 0)
(21.6175 -2.8427 1.94412e-19)
(22.5725 -2.94497 -1.71995e-19)
(23.5152 -3.04052 -4.77435e-21)
(24.4256 -3.12563 0)
(25.2849 -3.19711 -1.09449e-19)
(26.1102 -3.25572 1.6175e-22)
(27.0064 -3.31579 8.73435e-20)
(28.2836 -3.41908 -6.03091e-20)
(0.686202 -0.0944407 7.17191e-23)
(2.24793 -0.309928 -1.02504e-18)
(4.17982 -0.575291 -6.88945e-24)
(6.41342 -0.881138 1.11824e-18)
(8.56426 -1.17593 -9.31028e-19)
(10.3742 -1.42227 7.35113e-19)
(11.8892 -1.62631 0)
(13.2045 -1.80227 0)
(14.3881 -1.95854 8.57394e-22)
(15.4846 -2.10133 7.56803e-22)
(16.524 -2.23416 -1.30142e-21)
(17.5266 -2.35989 -3.08095e-19)
(18.5068 -2.47951 2.7795e-19)
(19.4738 -2.59454 -2.51737e-19)
(20.4348 -2.70489 2.30847e-19)
(21.3957 -2.811 0)
(22.3556 -2.91227 -5.75149e-21)
(23.3042 -3.00648 -1.52122e-19)
(24.2209 -3.09008 1.43074e-19)
(25.0869 -3.15978 -1.14801e-19)
(25.918 -3.21663 1.0016e-19)
(26.816 -3.27249 -2.27924e-20)
(28.0949 -3.38287 1.05508e-19)
(0.667117 -0.0922196 0)
(2.1882 -0.302775 5.17164e-24)
(4.07415 -0.562644 0)
(6.2648 -0.86433 0)
(8.38757 -1.15526 -9.77194e-19)
(10.1811 -1.39904 7.71606e-19)
(11.6833 -1.60243 0)
(12.9888 -1.77664 0)
(14.1649 -1.93204 -1.75782e-21)
(15.2564 -2.07356 -3.97089e-19)
(16.2925 -2.20546 3.55435e-19)
(17.2926 -2.33018 -3.19655e-19)
(18.2715 -2.44869 2.90661e-19)
(19.238 -2.56265 2.65398e-19)
(20.2 -2.67174 -2.41377e-19)
(21.1635 -2.77663 -2.1325e-19)
(22.1277 -2.87627 1.94587e-19)
(23.0814 -2.96856 -1.69661e-19)
(24.0038 -3.04946 3.64289e-22)
(24.8758 -3.11517 1.12602e-19)
(25.712 -3.16666 1.04701e-19)
(26.6139 -3.2113 -7.94438e-22)
(27.8952 -3.29787 -1.09718e-19)
(0.773209 -0.105012 -4.9041e-19)
(2.51515 -0.341979 2.79819e-24)
(4.64357 -0.630658 9.29872e-19)
(7.05119 -0.956458 8.93578e-19)
(9.31281 -1.26193 -1.4762e-18)
(11.1933 -1.51546 5.8338e-19)
(12.7583 -1.72511 0)
(14.1101 -1.9047 3.97647e-19)
(15.3213 -2.06427 2.11402e-23)
(16.4393 -2.21012 -6.09176e-19)
(17.4943 -2.34591 5.46852e-19)
(18.5068 -2.47415 -9.53326e-22)
(19.4911 -2.59677 -2.22875e-19)
(20.4577 -2.71465 1.54393e-21)
(21.4135 -2.82842 0)
(22.3615 -2.93822 1.66854e-19)
(23.3015 -3.04312 -1.3388e-19)
(24.225 -3.14191 1.24216e-19)
(25.1127 -3.23129 -2.0601e-19)
(25.9485 -3.30867 9.09371e-20)
(26.75 -3.37392 9.77211e-21)
(27.6218 -3.44748 9.32746e-21)
(28.8906 -3.55823 -6.77561e-20)
(0.791756 -0.0889958 0)
(2.55594 -0.317293 -8.90623e-25)
(4.60895 -0.572809 -1.28436e-20)
(6.80935 -0.855811 -4.13287e-23)
(8.84343 -1.14062 2.19237e-20)
(10.4955 -1.39123 0)
(11.8354 -1.60398 -2.58762e-20)
(12.9799 -1.7916 2.8591e-20)
(14.0079 -1.96215 -6.2785e-23)
(14.9676 -2.1225 3.93226e-20)
(15.8911 -2.2802 -4.93527e-20)
(16.7885 -2.43688 -2.46238e-22)
(17.6632 -2.60364 1.65557e-19)
(18.5138 -2.7497 -2.89924e-19)
(19.3931 -2.815 2.99795e-21)
(20.2091 -2.9277 1.91953e-19)
(21.0435 -3.00785 -2.34929e-19)
(21.9441 -3.04965 2.08295e-19)
(22.8415 -3.06875 -1.78585e-19)
(23.71 -3.05886 -1.62865e-19)
(24.5638 -3.03441 1.34458e-19)
(25.504 -2.99913 0)
(26.8546 -2.97287 0)
(0.786511 -0.106375 5.87003e-23)
(2.55581 -0.346139 1.96382e-22)
(4.71395 -0.637486 8.92656e-19)
(7.14707 -0.966639 -8.5538e-19)
(9.42479 -1.27372 -3.51497e-22)
(11.3184 -1.52745 0)
(12.8956 -1.73841 0)
(14.2559 -1.91909 -3.78994e-22)
(15.4732 -2.07931 3.29616e-19)
(16.596 -2.22534 -2.90907e-19)
(17.654 -2.36159 -2.61211e-19)
(18.668 -2.49024 2.34832e-19)
(19.6528 -2.6132 0)
(20.6189 -2.73136 -1.53646e-21)
(21.5738 -2.84571 -2.65697e-21)
(22.5203 -2.95609 -9.52333e-23)
(23.4576 -3.06185 1.36484e-19)
(24.3765 -3.16142 -1.1876e-19)
(25.259 -3.25206 0)
(26.09 -3.33074 -8.17206e-20)
(26.888 -3.39793 6.66176e-20)
(27.7572 -3.47761 0)
(29.0212 -3.5806 -8.14429e-20)
(0.91473 -0.120101 -5.85086e-19)
(2.95611 -0.387483 4.99223e-19)
(5.41633 -0.709576 -5.48099e-19)
(8.10899 -1.06248 5.13655e-19)
(10.5387 -1.38021 0)
(12.5168 -1.63833 -3.30623e-19)
(14.1488 -1.85088 2.69002e-19)
(15.5459 -2.03251 4.43921e-22)
(16.7891 -2.19316 0)
(17.927 -2.33985 1.74195e-19)
(18.992 -2.47615 1.24583e-23)
(20.007 -2.60516 -2.81242e-19)
(20.9871 -2.72875 2.52817e-19)
(21.9437 -2.84832 -1.13692e-19)
(22.8845 -2.96453 -1.04619e-19)
(23.8139 -3.0779 1.59321e-23)
(24.7306 -3.18789 8.10468e-20)
(25.6255 -3.29282 6.58972e-20)
(26.4801 -3.38966 1.52498e-23)
(27.2879 -3.47756 6.31935e-21)
(28.0764 -3.56608 -6.02686e-20)
(28.9288 -3.62266 3.64278e-20)
(30.1977 -3.81876 -9.71756e-21)
(0.808771 -0.109817 4.31633e-19)
(2.63333 -0.354917 -8.82764e-23)
(4.85827 -0.652957 -1.01963e-22)
(7.34956 -0.988213 -7.78882e-19)
(9.67005 -1.29802 -1.33222e-23)
(11.5907 -1.55462 5.07186e-19)
(13.186 -1.76634 4.11969e-19)
(14.5595 -1.9471 -3.46225e-19)
(15.7856 -2.10725 -2.53984e-23)
(16.9129 -2.25327 5.07928e-22)
(17.9732 -2.38862 -2.36663e-19)
(18.9875 -2.51661 -8.86703e-22)
(19.9707 -2.63876 -9.58194e-23)
(20.9346 -2.75592 1.3692e-21)
(21.8861 -2.8694 2.38132e-21)
(22.8287 -2.97854 1.38259e-19)
(23.7603 -3.08311 3.78941e-21)
(24.6713 -3.18079 0)
(25.5443 -3.26882 0)
(26.3663 -3.3444 7.87169e-20)
(27.1593 -3.40954 -6.01173e-20)
(28.0207 -3.47158 8.1341e-21)
(29.2333 -3.55189 -2.96628e-20)
(0.828911 -0.111106 -4.96444e-23)
(2.68787 -0.360751 3.59087e-24)
(4.94593 -0.663006 0)
(7.46706 -1.00071 0)
(9.80347 -1.31213 -6.11853e-19)
(11.7338 -1.5691 4.83763e-19)
(13.334 -1.78104 -3.924e-19)
(14.7087 -1.9621 3.30485e-19)
(15.9355 -2.12221 -5.7091e-22)
(17.063 -2.26832 -2.53722e-19)
(18.1229 -2.40419 2.25879e-19)
(19.1366 -2.53267 7.82539e-22)
(20.1191 -2.65536 -1.4762e-21)
(21.082 -2.77362 -1.27959e-21)
(22.032 -2.88821 -2.39966e-21)
(22.9725 -2.999 -1.29984e-19)
(23.9018 -3.10559 1.14477e-19)
(24.8103 -3.20593 -1.02695e-19)
(25.6802 -3.29752 8.80527e-20)
(26.4998 -3.37789 -4.62376e-21)
(27.2933 -3.45008 5.81621e-20)
(28.1639 -3.52251 -1.98203e-22)
(29.3913 -3.64049 -5.60435e-20)
(0.841349 -0.112551 4.96458e-23)
(2.72731 -0.365158 3.52503e-24)
(5.01561 -0.670648 7.47868e-19)
(7.56325 -1.01114 -7.10121e-19)
(9.91496 -1.32386 5.83089e-19)
(11.8536 -1.58148 2.75438e-23)
(13.4578 -1.79362 -3.7461e-19)
(14.8356 -1.97458 -3.14169e-22)
(16.0638 -2.13528 5.21927e-22)
(17.1926 -2.28135 -4.6151e-22)
(18.2533 -2.41752 8.62713e-22)
(19.267 -2.54615 -7.78527e-22)
(20.2495 -2.66917 0)
(21.2115 -2.78781 1.59614e-19)
(22.16 -2.90272 2.86063e-23)
(23.0985 -3.01402 -1.30046e-19)
(24.0253 -3.12128 0)
(24.9309 -3.22263 0)
(25.7967 -3.31545 0)
(26.6115 -3.3977 4.59419e-21)
(27.4005 -3.47235 -5.52322e-20)
(28.2655 -3.5517 4.26486e-23)
(29.4842 -3.68353 5.46456e-20)
(0.85556 -0.11412 -4.56193e-23)
(2.77066 -0.36992 3.33033e-24)
(5.09028 -0.678924 0)
(7.66381 -1.02198 0)
(10.0291 -1.33589 0)
(11.9724 -1.59342 4.28841e-22)
(13.5786 -1.80549 0)
(14.9588 -1.98671 0)
(16.1887 -2.1474 -5.19062e-22)
(17.3184 -2.2936 1.88661e-23)
(18.3794 -2.42995 7.88807e-22)
(19.3935 -2.55867 0)
(20.3757 -2.68194 1.6833e-19)
(21.3365 -2.80069 1.23574e-21)
(22.2835 -2.91596 -1.36842e-19)
(23.2201 -3.02758 0)
(24.1447 -3.13531 0)
(25.048 -3.23725 0)
(25.9112 -3.33054 4.90016e-21)
(26.7234 -3.41328 0)
(27.5106 -3.48735 0)
(28.377 -3.5674 -4.8369e-20)
(29.5961 -3.68924 7.74432e-20)
(0.866805 -0.114979 3.65234e-19)
(2.80932 -0.373586 7.76248e-23)
(5.15739 -0.686353 0)
(7.75345 -1.03056 0)
(10.128 -1.34564 0)
(12.074 -1.60289 -4.09182e-22)
(13.6835 -1.81538 3.40109e-19)
(15.0658 -1.99671 -2.86156e-19)
(16.2982 -2.15756 0)
(17.4297 -2.30433 -2.19337e-19)
(18.4921 -2.44084 3.9385e-19)
(19.5066 -2.57009 -1.77766e-19)
(20.4883 -2.69367 0)
(21.4484 -2.81305 -1.11458e-21)
(22.3939 -2.92891 2.00556e-21)
(23.3286 -3.04149 -1.18519e-19)
(24.2512 -3.15024 2.0892e-19)
(25.1524 -3.25371 -9.20304e-20)
(26.0132 -3.34887 -4.88005e-21)
(26.8233 -3.43413 -6.96545e-20)
(27.6082 -3.51065 5.78223e-20)
(28.4724 -3.59861 -6.75024e-21)
(29.6948 -3.72512 -1.26196e-20)
(0.874973 -0.116569 7.02315e-19)
(2.83555 -0.376037 -5.98898e-19)
(5.20246 -0.689527 6.58678e-19)
(7.81683 -1.03602 -1.24155e-18)
(10.1991 -1.3513 1.12903e-22)
(12.152 -1.60877 -6.01578e-24)
(13.7678 -1.82153 3.25536e-19)
(15.1549 -2.00313 -2.73325e-22)
(16.3915 -2.16431 2.38062e-19)
(17.5262 -2.31118 -2.10642e-19)
(18.5906 -2.44792 1.88005e-19)
(19.6058 -2.57723 3.22757e-23)
(20.5876 -2.70084 -1.52948e-19)
(21.547 -2.82042 4.34972e-23)
(22.4914 -2.93638 -1.99691e-21)
(23.4243 -3.0493 1.1195e-19)
(24.3446 -3.15843 -6.0992e-21)
(25.243 -3.26257 5.42036e-21)
(26.101 -3.35883 -1.42195e-19)
(26.9077 -3.44534 6.60765e-23)
(27.6877 -3.52374 -3.9306e-23)
(28.5432 -3.61752 5.10212e-20)
(29.7614 -3.73614 -1.18792e-20)
(0.882607 -0.116714 -3.37693e-19)
(2.85543 -0.378102 -3.11686e-24)
(5.237 -0.692665 1.53854e-22)
(7.86876 -1.03944 -1.41542e-22)
(10.2633 -1.35582 4.84558e-19)
(12.2267 -1.61363 2.04881e-22)
(13.8516 -1.8269 -3.11282e-19)
(15.2456 -2.00867 0)
(16.4861 -2.16952 2.2793e-19)
(17.6235 -2.31597 -2.01575e-19)
(18.6891 -2.45229 -1.80256e-19)
(19.7046 -2.58091 1.62595e-19)
(20.6863 -2.70405 -5.10633e-23)
(21.645 -2.82279 4.6154e-23)
(22.5884 -2.93798 -1.17801e-19)
(23.52 -3.04993 1.08408e-19)
(24.4383 -3.158 3.00316e-21)
(25.3341 -3.26072 -1.13752e-22)
(26.1892 -3.35569 -4.4703e-21)
(26.9932 -3.44003 -6.00976e-20)
(27.7694 -3.51806 5.30061e-20)
(28.6156 -3.60836 -4.9425e-20)
(29.8204 -3.71197 6.82577e-20)
(0.890776 -0.117314 -3.21933e-19)
(2.88268 -0.379937 5.47075e-19)
(5.28709 -0.697158 -7.50604e-23)
(7.93903 -1.04604 6.60535e-24)
(10.3505 -1.3625 -1.15113e-22)
(12.3248 -1.62147 1.73591e-22)
(13.9583 -1.8343 2.95838e-19)
(15.3557 -2.01597 2.557e-22)
(16.5972 -2.17619 -2.1616e-19)
(17.7346 -2.32217 1.91131e-19)
(18.7997 -2.45764 2.64148e-23)
(19.8151 -2.58551 -3.08614e-19)
(20.7961 -2.70791 -1.14835e-21)
(21.7539 -2.82567 1.26857e-19)
(22.6964 -2.93988 -1.81267e-21)
(23.6271 -3.0505 -1.54061e-21)
(24.5444 -3.15718 0)
(25.4393 -3.25793 -4.84082e-21)
(26.2934 -3.35008 4.04437e-21)
(27.0986 -3.43019 1.88242e-22)
(27.8786 -3.5052 0)
(28.7298 -3.57669 -4.63488e-20)
(29.9409 -3.66226 -2.14985e-20)
(0.903712 -0.118688 -3.05997e-19)
(2.92345 -0.384134 5.21119e-19)
(5.36195 -0.704558 6.83181e-23)
(8.03666 -1.0558 1.34102e-22)
(10.4591 -1.37251 -4.36716e-19)
(12.4361 -1.63122 3.45335e-19)
(14.0696 -1.84378 0)
(15.4664 -2.02517 -4.62256e-22)
(16.7077 -2.18518 0)
(17.8442 -2.33123 -1.81212e-19)
(18.9084 -2.46672 1.61955e-19)
(19.9232 -2.59482 1.4668e-19)
(20.9035 -2.71752 1.14506e-23)
(21.8606 -2.83575 -1.20308e-19)
(22.8022 -2.9506 0)
(23.7325 -3.06206 1.5352e-21)
(24.6499 -3.16982 0)
(25.5447 -3.27192 4.60025e-21)
(26.3996 -3.36538 5.50851e-20)
(27.2077 -3.44805 -5.40239e-20)
(27.9943 -3.53132 4.76377e-20)
(28.8507 -3.59605 5.27681e-21)
(30.0806 -3.72764 -6.09393e-20)
(1.03405 -0.127492 -5.57121e-20)
(3.33614 -0.410632 0)
(6.09054 -0.748836 -1.02031e-19)
(9.02534 -1.10914 9.28232e-20)
(11.5811 -1.42311 0)
(13.6318 -1.67425 -2.6141e-23)
(15.3154 -1.87992 -4.76052e-20)
(16.7551 -2.05549 4.01434e-20)
(18.0324 -2.21063 -3.4882e-20)
(19.1977 -2.35158 3.08202e-20)
(20.2856 -2.48253 -6.92124e-23)
(21.3182 -2.60613 -2.4969e-20)
(22.3124 -2.72423 3.28954e-22)
(23.2805 -2.83835 2.06581e-20)
(24.2308 -2.94925 -1.85676e-20)
(25.1676 -3.05717 -5.56979e-22)
(26.0889 -3.16173 1.52537e-20)
(26.9839 -3.26102 0)
(27.8316 -3.35214 -1.17122e-20)
(28.6188 -3.43268 8.83871e-21)
(29.375 -3.50554 -7.20249e-21)
(30.1967 -3.57866 1.63549e-20)
(31.3317 -3.66891 -5.0984e-21)
(1.04433 -0.128144 0)
(3.36404 -0.412233 0)
(6.13271 -0.751855 0)
(9.07809 -1.11261 7.71133e-20)
(11.6383 -1.42565 -6.15427e-20)
(13.6903 -1.67648 4.84683e-20)
(15.3734 -1.88181 -3.94406e-20)
(16.8136 -2.05696 0)
(18.0908 -2.21198 3.10677e-23)
(19.2561 -2.35296 -2.56225e-20)
(20.3436 -2.48388 2.28991e-20)
(21.3756 -2.6076 0)
(22.3696 -2.72606 -1.88179e-20)
(23.3377 -2.8407 -4.9e-23)
(24.2883 -2.95235 -2.43171e-23)
(25.2255 -3.06129 1.69322e-23)
(26.1473 -3.16718 1.22546e-20)
(27.0428 -3.26833 -3.01624e-22)
(27.8909 -3.36193 1.15349e-21)
(28.6791 -3.44611 0)
(29.4379 -3.52448 7.96462e-22)
(30.2663 -3.60602 -8.87622e-22)
(31.4006 -3.7284 0)
(0.917238 -0.120059 0)
(2.96643 -0.387762 -5.98782e-23)
(5.4379 -0.710746 2.79952e-24)
(8.14403 -1.06404 5.23664e-24)
(10.5779 -1.38185 -4.01998e-19)
(12.559 -1.64004 6.35728e-19)
(14.1958 -1.85279 -2.58569e-19)
(15.5969 -2.03475 2.17713e-19)
(16.8427 -2.19569 2.1252e-23)
(17.9831 -2.34251 2.55951e-23)
(19.05 -2.47931 -1.49586e-19)
(20.0658 -2.6088 5.36381e-22)
(21.0464 -2.73294 9.70059e-22)
(22.0028 -2.85327 -1.1032e-19)
(22.9432 -2.97057 1.00799e-19)
(23.8715 -3.08535 -1.34899e-21)
(24.7865 -3.19734 2.38179e-21)
(25.679 -3.30543 6.83184e-20)
(26.5295 -3.40723 -5.46977e-20)
(27.3278 -3.50097 -2.76564e-21)
(28.093 -3.58994 0)
(28.9264 -3.70449 -4.62462e-20)
(30.17 -3.98213 4.97688e-20)
(0.924448 -0.120812 -1.55057e-24)
(2.9876 -0.389767 4.57514e-19)
(5.47281 -0.713209 -5.00859e-19)
(8.18855 -1.06647 4.67842e-19)
(10.631 -1.38389 0)
(12.6187 -1.64231 -6.92723e-24)
(14.2604 -1.85457 0)
(15.6651 -2.03593 0)
(16.9128 -2.19625 0)
(18.0551 -2.34221 0)
(19.1235 -2.47805 -1.41338e-19)
(20.14 -2.60629 1.26887e-19)
(21.1207 -2.72894 0)
(22.0772 -2.84739 -1.03242e-19)
(23.0175 -2.96235 9.35611e-20)
(23.9458 -3.07428 -8.34828e-20)
(24.861 -3.18236 -1.34002e-22)
(25.7533 -3.28509 6.60894e-20)
(26.6028 -3.37893 -5.81248e-20)
(27.3935 -3.46135 6.24553e-24)
(28.1551 -3.53455 4.1321e-20)
(28.998 -3.60728 4.98339e-21)
(30.2134 -3.70932 -7.35242e-21)
(0.936462 -0.121702 5.17095e-19)
(3.02021 -0.392804 4.74909e-24)
(5.5235 -0.717882 -4.79797e-19)
(8.25034 -1.07245 2.1812e-22)
(10.6986 -1.38969 0)
(12.6909 -1.64754 -2.87437e-19)
(14.3349 -1.86016 -1.46117e-23)
(15.7405 -2.04132 1.96684e-19)
(16.9889 -2.20152 1.70672e-19)
(18.1313 -2.34751 -1.50855e-19)
(19.1998 -2.48339 5.1439e-22)
(20.2161 -2.61188 4.85374e-22)
(21.1967 -2.73493 0)
(22.1529 -2.85404 -3.52809e-23)
(23.0933 -2.96999 1.36352e-21)
(24.0218 -3.08327 8.12013e-20)
(24.9375 -3.19322 -7.27998e-20)
(25.8306 -3.29863 0)
(26.681 -3.39626 1.45807e-22)
(27.4749 -3.48408 -2.75995e-21)
(28.2427 -3.56578 0)
(29.0929 -3.6536 0)
(30.3002 -3.80306 0)
(0.937959 -0.121169 0)
(3.03252 -0.392666 -4.1757e-19)
(5.55102 -0.719464 4.56243e-19)
(8.29273 -1.07379 4.2439e-19)
(10.7477 -1.39171 -3.44616e-19)
(12.7449 -1.64937 -1.36418e-22)
(14.3929 -1.86156 0)
(15.8011 -2.04252 1.86693e-19)
(17.0508 -2.20247 -1.61635e-19)
(18.1943 -2.34816 1.4287e-19)
(19.2634 -2.48383 -1.28329e-19)
(20.2802 -2.61188 1.14782e-19)
(21.2611 -2.73464 -1.04151e-19)
(22.2179 -2.85323 -3.5887e-23)
(23.1583 -2.96871 -1.35785e-21)
(24.0868 -3.0813 7.45925e-20)
(25.0023 -3.19053 -6.48451e-20)
(25.8951 -3.29502 0)
(26.7449 -3.39154 3.1989e-21)
(27.5369 -3.47791 -4.27301e-20)
(28.3013 -3.55797 7.57954e-20)
(29.1473 -3.64418 1.85036e-23)
(30.3515 -3.77488 -3.28783e-20)
(0.944808 -0.122503 2.33631e-19)
(3.05522 -0.394735 3.98265e-19)
(5.59149 -0.722261 -4.34497e-19)
(8.34617 -1.07771 1.01021e-22)
(10.8092 -1.39479 3.27465e-19)
(12.8093 -1.65241 -2.58639e-19)
(14.4572 -1.86406 2.10317e-19)
(15.8665 -2.04443 -1.77137e-19)
(17.1176 -2.20429 0)
(18.2621 -2.34973 0)
(19.3315 -2.48506 0)
(20.3486 -2.61302 1.09803e-19)
(21.3296 -2.73561 2.92296e-23)
(22.2865 -2.8541 -1.79475e-19)
(23.2274 -2.9696 1.62205e-19)
(24.1563 -3.08227 -1.42776e-19)
(25.0722 -3.19169 5.95986e-20)
(25.965 -3.29637 1.68572e-21)
(26.8146 -3.39328 0)
(27.6066 -3.48015 2.6111e-21)
(28.3711 -3.56128 0)
(29.2182 -3.64846 0)
(30.4187 -3.78443 -2.40486e-20)
(0.953554 -0.122837 -4.44786e-19)
(3.07626 -0.396354 3.77834e-19)
(5.62509 -0.72412 4.12022e-19)
(8.38885 -1.07978 -3.82744e-19)
(10.8584 -1.39735 -3.09911e-19)
(12.8632 -1.6546 2.44748e-19)
(14.5131 -1.86601 0)
(15.9244 -2.04631 0)
(17.1774 -2.20593 0)
(18.3224 -2.35119 1.2828e-19)
(19.3928 -2.48628 -1.14305e-19)
(20.4109 -2.61412 -3.94052e-22)
(21.3922 -2.73651 9.35422e-20)
(22.3496 -2.85491 -1.69091e-19)
(23.291 -2.97023 7.60777e-20)
(24.2204 -3.08276 -6.81023e-20)
(25.1365 -3.19204 6.21057e-20)
(26.0297 -3.2965 -5.40963e-20)
(26.88 -3.39312 -3.60151e-23)
(27.6721 -3.47961 3.85855e-20)
(28.436 -3.55959 0)
(29.283 -3.64385 2.76408e-20)
(30.4869 -3.77658 -7.79296e-21)
(0.9596 -0.123381 -1.3239e-23)
(3.09565 -0.397849 3.59306e-19)
(5.65607 -0.726588 -7.82604e-19)
(8.43238 -1.08284 7.2644e-19)
(10.9098 -1.40065 -5.87494e-19)
(12.9157 -1.65747 2.31784e-19)
(14.5678 -1.86848 -1.79122e-22)
(15.9806 -2.0488 -1.58709e-19)
(17.2347 -2.20814 -1.53855e-23)
(18.3805 -2.3533 -1.85076e-23)
(19.4517 -2.48831 1.08221e-19)
(20.4707 -2.61607 3.92527e-22)
(21.4531 -2.73847 -8.86234e-20)
(22.4111 -2.85684 -3.40881e-23)
(23.3529 -2.97225 -9.82178e-23)
(24.2825 -3.08482 -4.57021e-23)
(25.1988 -3.19437 -5.32117e-23)
(26.092 -3.29924 4.97845e-20)
(26.9424 -3.39662 4.27945e-20)
(27.7335 -3.48443 -7.34704e-20)
(28.4958 -3.56635 3.25201e-20)
(29.3405 -3.65502 3.85485e-21)
(30.5441 -3.79945 6.93714e-21)
(0.967687 -0.124043 -2.38308e-23)
(3.11797 -0.399767 0)
(5.68826 -0.728561 -3.69891e-19)
(8.47562 -1.08475 6.85541e-19)
(10.957 -1.40245 -5.53997e-19)
(12.9648 -1.65866 2.18538e-19)
(14.6194 -1.86948 1.78388e-22)
(16.0344 -2.04937 -1.49696e-19)
(17.29 -2.20845 -1.55892e-23)
(18.4372 -2.35331 1.14518e-19)
(19.5091 -2.488 0)
(20.5286 -2.61545 -3.50921e-22)
(21.5117 -2.7376 0)
(22.4706 -2.85568 5.74343e-22)
(23.4131 -2.97077 -1.09451e-21)
(24.3435 -3.08301 0)
(25.2603 -3.19203 -1.64141e-21)
(26.1535 -3.29627 0)
(27.0029 -3.39291 0)
(27.793 -3.47981 0)
(28.554 -3.5606 -3.45254e-20)
(29.3945 -3.64756 2.50663e-20)
(30.5945 -3.78323 2.01306e-20)
(0.975945 -0.124557 2.38797e-23)
(3.14115 -0.401202 0)
(5.72253 -0.730868 0)
(8.52091 -1.08733 -8.1175e-23)
(11.0082 -1.40481 0)
(13.0181 -1.66062 0)
(14.6742 -1.87083 0)
(16.0902 -2.05053 0)
(17.3471 -2.2093 1.2202e-19)
(18.4954 -2.35387 -1.07791e-19)
(19.5685 -2.48829 3.65972e-22)
(20.5886 -2.6155 6.79498e-22)
(21.5724 -2.73725 0)
(22.5318 -2.85516 -5.72491e-22)
(23.4753 -2.96988 9.74682e-22)
(24.4064 -3.08191 0)
(25.3238 -3.19063 -4.77398e-20)
(26.2172 -3.2945 4.43187e-20)
(27.0658 -3.3906 -2.31199e-21)
(27.8558 -3.47672 -1.98846e-21)
(28.6174 -3.5562 3.27566e-20)
(29.4595 -3.64094 -2.34035e-20)
(30.6586 -3.77309 0)
(0.981271 -0.124856 3.58454e-19)
(3.15828 -0.402171 -6.05865e-19)
(5.7534 -0.732614 6.57568e-19)
(8.56325 -1.08955 -3.03896e-19)
(11.058 -1.40682 -2.44978e-19)
(13.0701 -1.66212 3.86247e-19)
(14.728 -1.87197 -1.35604e-22)
(16.1457 -2.05119 1.53608e-23)
(17.4034 -2.20956 1.7191e-23)
(18.5523 -2.3538 2.06106e-23)
(19.6259 -2.48793 -9.09334e-20)
(20.6467 -2.61476 8.13963e-20)
(21.6315 -2.73631 3.35837e-23)
(22.5918 -2.85404 -6.64164e-20)
(23.536 -2.96851 -5.77938e-23)
(24.468 -3.08035 5.40816e-20)
(25.3856 -3.18897 -4.93562e-20)
(26.279 -3.29275 4.17227e-20)
(27.1274 -3.38877 -3.34618e-20)
(27.9172 -3.47499 -2.89019e-20)
(28.678 -3.55511 -1.04959e-22)
(29.5173 -3.64347 -1.32247e-22)
(30.711 -3.77894 2.40313e-20)
(0.984208 -0.12475 0)
(3.17078 -0.402074 2.23275e-24)
(5.78321 -0.734108 3.08307e-19)
(8.605 -1.09181 -2.84703e-19)
(11.1068 -1.40835 0)
(13.1228 -1.66379 1.80584e-19)
(14.7817 -1.8731 -1.46644e-19)
(16.2004 -2.05174 0)
(17.4593 -2.20986 1.0715e-19)
(18.6095 -2.35377 -1.89258e-19)
(19.6837 -2.48757 8.46829e-20)
(20.7055 -2.61413 -7.63979e-20)
(21.6913 -2.73545 6.91287e-20)
(22.6525 -2.85278 -5.05091e-22)
(23.5975 -2.96701 -5.68969e-23)
(24.5302 -3.07844 -5.05148e-20)
(25.4485 -3.18661 4.46711e-20)
(26.3425 -3.28979 -3.89541e-20)
(27.1922 -3.38493 3.34185e-20)
(27.9825 -3.46983 0)
(28.7433 -3.54799 0)
(29.5841 -3.63195 0)
(30.7754 -3.7528 0)
(0.987434 -0.125187 1.56769e-19)
(3.18444 -0.403115 2.1761e-24)
(5.81712 -0.736411 3.40936e-23)
(8.65108 -1.09555 0)
(11.1557 -1.4115 5.05147e-23)
(13.1758 -1.66645 8.50789e-23)
(14.8343 -1.87582 0)
(16.253 -2.05399 0)
(17.5129 -2.21197 0)
(18.6642 -2.35584 0)
(19.7399 -2.48966 0)
(20.7629 -2.61617 -7.13523e-20)
(21.7494 -2.73749 -2.55782e-23)
(22.7115 -2.85482 4.12523e-22)
(23.6573 -2.96918 5.18747e-20)
(24.5905 -3.08074 0)
(25.5094 -3.18912 -1.26404e-21)
(26.4042 -3.29277 -3.6515e-20)
(27.2547 -3.38869 3.13334e-20)
(28.0453 -3.47483 -2.69976e-20)
(28.805 -3.5548 -3.98326e-23)
(29.6435 -3.64099 2.66455e-21)
(30.8384 -3.77323 2.58791e-20)
(0.996072 -0.126055 1.46658e-19)
(3.20821 -0.405722 9.01583e-24)
(5.85131 -0.738751 -3.28581e-23)
(8.69506 -1.09701 -2.47614e-19)
(11.2012 -1.4137 1.99066e-19)
(13.222 -1.6678 -1.56863e-19)
(14.883 -1.87651 1.27365e-19)
(16.303 -2.05482 1.44953e-23)
(17.5637 -2.21246 -9.30548e-20)
(18.716 -2.35602 0)
(19.793 -2.48973 7.38945e-20)
(20.8171 -2.6162 -1.32563e-19)
(21.8047 -2.73731 1.20254e-19)
(22.7677 -2.85466 -5.44647e-20)
(23.7142 -2.96882 4.91456e-20)
(24.6481 -3.08036 -4.40055e-20)
(25.5678 -3.18861 2.43953e-21)
(26.4628 -3.29215 0)
(27.313 -3.38811 1.76661e-21)
(28.1026 -3.47433 -2.66976e-20)
(28.8605 -3.55406 -4.14383e-23)
(29.6961 -3.64032 1.79951e-20)
(30.8869 -3.77557 1.44583e-20)
(0.999086 -0.125455 8.00667e-24)
(3.21968 -0.40466 2.92547e-23)
(5.8742 -0.739616 2.94277e-23)
(8.72886 -1.099 2.29975e-19)
(11.2419 -1.41433 -1.84705e-19)
(13.2641 -1.66833 1.45561e-19)
(14.9282 -1.87694 1.32928e-22)
(16.3508 -2.0549 -9.96244e-20)
(17.6129 -2.21236 0)
(18.7665 -2.3558 7.63213e-20)
(19.8453 -2.4892 2.09166e-24)
(20.8706 -2.61557 -4.55512e-22)
(21.8594 -2.73643 3.05443e-23)
(22.8234 -2.85362 -3.74043e-22)
(23.7708 -2.96754 -4.56233e-20)
(24.7055 -3.07884 -4.15596e-20)
(25.6256 -3.18696 7.13775e-20)
(26.5207 -3.29036 -3.06649e-20)
(27.3701 -3.38621 -3.39966e-21)
(28.1588 -3.47245 1.51497e-21)
(28.9152 -3.55229 0)
(29.7455 -3.64017 0)
(30.9318 -3.77391 4.39991e-21)
(1.00111 -0.125895 -2.27343e-23)
(3.22972 -0.405858 2.13821e-19)
(5.89944 -0.740474 -2.31641e-19)
(8.76244 -1.09913 0)
(11.2799 -1.41488 7.98642e-23)
(13.3058 -1.6688 1.34106e-19)
(14.9722 -1.87675 -1.09085e-19)
(16.3973 -2.0544 0)
(17.6624 -2.21162 0)
(18.8179 -2.35478 7.04329e-20)
(19.8977 -2.48785 -1.2635e-19)
(20.9243 -2.61373 5.71255e-20)
(21.9144 -2.73435 0)
(22.8793 -2.85107 4.67329e-20)
(23.8275 -2.9646 5.25033e-23)
(24.763 -3.07539 -7.5042e-20)
(25.6832 -3.18294 3.35034e-20)
(26.5778 -3.28568 -9.50187e-22)
(27.4267 -3.38073 3.14603e-21)
(28.2152 -3.46588 0)
(28.9704 -3.5437 0)
(29.7985 -3.62846 1.79026e-20)
(30.9806 -3.7522 -2.13233e-20)
(1.00743 -0.12581 -1.16092e-19)
(3.24977 -0.406657 2.28634e-23)
(5.92677 -0.741471 0)
(8.79792 -1.09988 -1.94905e-19)
(11.3244 -1.4155 -5.48978e-23)
(13.3543 -1.66853 -4.16166e-24)
(15.0211 -1.87605 1.00005e-19)
(16.4477 -2.05298 8.43575e-20)
(17.7151 -2.20987 -1.46225e-19)