/*--------------------------------*- C++ -*----------------------------------*\
  =========                 |
  \\      /  F ield         | OpenFOAM: The Open Source CFD Toolbox
   \\    /   O peration     | Website:  https://openfoam.org
    \\  /    A nd           | Version:  10
     \\/     M anipulation  |
\*---------------------------------------------------------------------------*/
FoamFile
{
    format      ascii;
    class       volVectorField;
    location    "491";
    object      wallShearStress;
}
// * * * * * * * * * * * * * * * * * * * * * * * * * * * * * * * * * * * * * //

dimensions      [0 2 -2 0 0 0 0];

internalField   uniform (0 0 0);

boundaryField
{
    back
    {
        type            empty;
    }
    front
    {
        type            empty;
    }
    exit
    {
        type            calculated;
        value           uniform (0 0 0);
    }
    bottom
    {
        type            calculated;
        value           uniform (0 0 0);
    }
    inlet
    {
        type            calculated;
        value           uniform (0 0 0);
    }
    top
    {
        type            calculated;
        value           uniform (0 0 0);
    }
    aerofoil
    {
        type            calculated;
        value           nonuniform List<vector> 
817
(
(-1.2377 0.165917 -4.21083e-23)
(-3.37099 0.119717 -4.00459e-19)
(-3.37447 0.116943 8.03883e-19)
(-1.01872 0.142069 -1.30402e-22)
(-0.0510878 0.00755806 0)
(-0.99832 0.138175 1.26045e-22)
(-0.996512 0.138445 4.35476e-24)
(-1.17671 0.160115 -1.9424e-22)
(-1.15242 0.15715 2.02248e-22)
(-1.12863 0.154341 -2.10463e-22)
(-1.10094 0.151086 2.19007e-22)
(-1.06868 0.14689 -1.1169e-22)
(-1.03894 0.14345 -6.88766e-40)
(-1.2039 0.163387 7.63565e-19)
(-1.24693 0.133356 -1.83671e-40)
(-1.22432 0.165474 -9.13745e-23)
(-1.43258 0.188147 9.1633e-19)
(-1.26289 0.171876 -6.7404e-19)
(-1.29003 0.172748 7.72595e-23)
(-1.30939 0.175061 -7.72627e-23)
(-1.33151 0.177477 7.09958e-23)
(-1.35341 0.179238 -5.70245e-19)
(-1.36627 0.18228 -1.09672e-18)
(-1.37363 0.181574 5.25559e-19)
(-1.38637 0.182426 5.01029e-19)
(-1.41101 0.185113 4.77752e-19)
(-1.61748 0.199587 8.71545e-20)
(-1.62952 0.199944 2.93874e-39)
(-1.43649 0.188079 0)
(-1.44316 0.188738 5.3274e-24)
(-1.45715 0.189292 -8.046e-19)
(-1.4652 0.188997 -2.58609e-36)
(-1.47713 0.191741 -3.6528e-19)
(-1.48695 0.191496 6.93584e-19)
(-1.49657 0.192426 2.06475e-23)
(-1.50429 0.19285 3.70452e-23)
(-1.51342 0.193061 -3.70307e-23)
(-1.52169 0.193546 -5.5586e-19)
(-1.53096 0.193892 0)
(-1.54089 0.195389 -2.44641e-19)
(-1.54958 0.19624 -2.28165e-19)
(-1.55796 0.195361 -1.24848e-23)
(-1.56516 0.196957 3.55437e-23)
(-1.5701 0.195918 1.80925e-19)
(-1.5808 0.197593 0)
(-1.59394 0.198172 -1.48322e-19)
(-1.60326 0.198493 1.33708e-19)
(-1.60609 0.198897 1.20079e-19)
(-1.60711 0.197484 -1.46937e-39)
(-1.81098 0.195354 -2.54049e-23)
(-1.81568 0.195506 -4.21256e-19)
(-1.82102 0.195361 4.3071e-19)
(-1.82499 0.194861 2.65724e-23)
(-1.82838 0.194597 -4.49517e-19)
(-1.63857 0.200602 3.50003e-36)
(-1.64725 0.200884 4.34654e-20)
(-1.6556 0.201535 -2.96499e-20)
(-1.66408 0.201997 -1.59687e-20)
(-1.6711 0.201925 -3.62438e-21)
(-1.67708 0.202654 9.7023e-21)
(-1.6849 0.202245 0)
(-1.68973 0.203486 -4.96335e-24)
(-1.69589 0.202127 4.96032e-24)
(-1.7034 0.203301 -5.92828e-20)
(-1.71074 0.202542 -7.05928e-20)
(-1.71563 0.20382 -2.93874e-39)
(-1.71941 0.202822 6.01795e-24)
(-1.7225 0.20316 2.08519e-19)
(-1.73215 0.203659 6.95574e-25)
(-1.74398 0.204791 -1.54408e-23)
(-1.7387 0.203274 7.97842e-24)
(-1.74009 0.2026 -1.86887e-23)
(-1.74877 0.202969 1.57561e-19)
(-1.74877 0.202494 -1.03173e-23)
(-1.75074 0.201723 2.77562e-23)
(-1.75024 0.201616 1.91026e-19)
(-1.75745 0.202585 2.03597e-19)
(-1.76581 0.201425 -1.48862e-35)
(-1.76999 0.202077 2.24882e-19)
(-1.77341 0.201514 -4.69614e-19)
(-1.77549 0.200845 -2.45641e-19)
(-1.77984 0.201555 2.56339e-19)
(-1.7834 0.201067 1.17549e-38)
(-1.78593 0.200778 1.71627e-23)
(-1.7878 0.201134 -1.71557e-23)
(-1.79213 0.200236 -2.95893e-19)
(-1.79499 0.19994 -3.04979e-19)
(-1.79522 0.19993 -2.00046e-23)
(-1.79534 0.198468 -1.18798e-24)
(-1.7987 0.198665 -3.3279e-19)
(-1.80198 0.198101 -3.42217e-19)
(-1.80302 0.197742 3.50948e-19)
(-1.80345 0.197437 -3.61134e-19)
(-1.80822 0.197754 -2.08415e-35)
(-1.80635 0.196405 -2.48008e-35)
(-1.80314 0.195891 0)
(-1.80621 0.194979 7.17465e-43)
(-2.53676 0.189211 5.58077e-19)
(-2.55399 0.188699 -5.60863e-19)
(-2.57452 0.189832 -1.03451e-22)
(-2.59816 0.189871 3.43216e-23)
(-2.6237 0.190729 -1.84376e-25)
(-2.64704 0.191017 5.73366e-19)
(-2.66898 0.191435 3.50642e-23)
(-2.69188 0.191364 2.35099e-38)
(-2.71258 0.191458 5.80708e-19)
(-2.73013 0.191288 7.11297e-23)
(-1.8314 0.194798 -4.58539e-19)
(-1.83428 0.19377 9.35349e-19)
(-1.837 0.193884 -9.52866e-19)
(-1.83902 0.1937 -4.85204e-19)
(-1.83977 0.192803 -9.87115e-19)
(-1.84064 0.192836 -5.02583e-19)
(-1.84218 0.19177 -2.93874e-39)
(-1.846 0.191553 -5.22981e-19)
(-1.85339 0.192048 -1.06544e-18)
(-1.85707 0.191629 6.65509e-23)
(-1.85895 0.190912 -6.65105e-23)
(-1.8625 0.190609 5.57623e-19)
(-1.86419 0.190433 0)
(-1.86257 0.19005 3.52384e-23)
(-1.85998 0.188627 -3.52264e-23)
(-1.86304 0.188298 3.64094e-23)
(-1.86951 0.188749 -3.64249e-23)
(-1.87261 0.187962 6.50167e-39)
(-1.87674 0.18788 0)
(-1.88049 0.188198 -1.25662e-18)
(-1.88579 0.18774 1.27193e-18)
(-1.88969 0.18726 1.28758e-18)
(-1.89072 0.186771 -6.51851e-19)
(-1.89176 0.186523 4.00021e-23)
(-1.88736 0.184975 -1.84388e-39)
(-1.89649 0.185335 2.08729e-23)
(-1.91312 0.186595 -6.30003e-23)
(-1.91183 0.185687 -1.38456e-18)
(-1.9104 0.184644 4.31551e-23)
(-1.91858 0.185255 1.42195e-18)
(-1.91955 0.184423 7.19954e-19)
(-1.92898 0.184688 -7.30337e-19)
(-1.93688 0.184968 -4.53948e-23)
(-1.94485 0.184409 6.84334e-23)
(-1.9545 0.185241 -2.30168e-23)
(-1.95965 0.184836 8.60958e-42)
(-1.964 0.18457 4.74192e-23)
(-1.9688 0.184057 7.80739e-19)
(-1.9756 0.18413 -4.93294e-25)
(-1.98045 0.183663 -4.92092e-25)
(-1.98693 0.183766 -8.04779e-19)
(-1.99133 0.183314 1.6248e-18)
(-1.99858 0.183127 0)
(-2.00441 0.183548 -6.49664e-40)
(-2.00538 0.182083 0)
(-2.00482 0.18172 8.42328e-19)
(-2.01156 0.181122 8.52371e-19)
(-2.0203 0.181403 8.61368e-19)
(-2.02875 0.181536 0)
(-2.03652 0.18122 -8.80044e-19)
(-2.0414 0.181463 -8.88665e-19)
(-2.04669 0.180741 5.45077e-23)
(-2.05564 0.180663 -9.08104e-19)
(-2.06402 0.180668 -9.17567e-19)
(-2.06605 0.180126 9.25678e-19)
(-2.07367 0.179603 -9.36978e-19)
(-2.08688 0.180273 9.47643e-19)
(-2.09619 0.180485 -9.57859e-19)
(-2.10709 0.180688 9.67094e-19)
(-2.11534 0.180529 -5.80545e-23)
(-2.12521 0.180409 9.11855e-23)
(-2.13966 0.180362 -1.98414e-18)
(-2.15188 0.180472 8.42124e-35)
(-2.16373 0.18087 -6.16892e-23)
(-2.17167 0.180503 6.16919e-23)
(-2.18527 0.180869 -1.02201e-18)
(-2.20003 0.18139 -1.02854e-18)
(-2.21561 0.181852 1.03557e-18)
(-2.22957 0.181626 -2.08081e-18)
(-2.2426 0.18209 -1.04523e-18)
(-2.25719 0.181826 6.40007e-23)
(-2.27627 0.182836 -1.05846e-18)
(-2.29705 0.183235 1.0643e-18)
(-2.32019 0.184364 -2.13611e-18)
(-2.33746 0.184517 3.39314e-23)
(-2.37126 0.185238 6.87775e-24)
(-2.38666 0.186126 -1.86135e-24)
(-2.39466 0.186088 0)
(-2.41062 0.186432 1.08403e-18)
(-2.4286 0.186447 -1.0895e-18)
(-2.45011 0.186892 -6.70616e-23)
(-2.47367 0.187726 -5.50724e-19)
(-2.4946 0.188156 5.53244e-19)
(-2.5175 0.188421 -5.56321e-19)
(-4.57927 -0.680563 -1.31585e-18)
(-4.59017 -0.702514 1.28789e-26)
(-4.60705 -0.719474 -2.32013e-18)
(-4.61731 -0.739242 -4.63268e-18)
(-4.6295 -0.760292 -8.83972e-36)
(-4.64249 -0.781781 0)
(-4.65542 -0.804079 0)
(-4.66973 -0.827244 9.21703e-18)
(-4.68855 -0.852361 4.59947e-18)
(-4.70283 -0.877512 -4.58695e-18)
(-4.72085 -0.904119 4.57104e-18)
(-4.73284 -0.930538 -4.55709e-18)
(-4.74888 -0.958746 4.54182e-18)
(-4.76308 -0.988008 4.52167e-18)
(-4.78072 -1.01887 2.75465e-22)
(-4.79458 -1.05089 2.72563e-22)
(-4.80663 -1.08271 -5.43295e-22)
(-4.81886 -1.11692 1.61583e-24)
(-4.83242 -1.15256 1.85204e-24)
(-4.84705 -1.1902 4.36186e-18)
(-2.75001 0.191715 -5.87129e-19)
(-2.76942 0.191637 5.89643e-19)
(-2.78455 0.191446 -3.6837e-23)
(-2.80195 0.191106 7.27212e-23)
(-2.82073 0.191267 -1.0982e-22)
(-2.83891 0.190863 3.64397e-23)
(-2.85433 0.190428 -3.7243e-23)
(-2.87156 0.18984 -6.08406e-19)
(-2.88464 0.189226 -2.14656e-25)
(-2.89922 0.188488 7.52068e-23)
(-2.91275 0.188065 -3.77369e-23)
(-2.92232 0.187571 -3.81383e-23)
(-2.93069 0.186239 -2.6605e-25)
(-2.94424 0.185189 -6.3149e-19)
(-2.95828 0.184949 3.86612e-23)
(-2.96769 0.183536 1.72192e-41)
(-2.97683 0.181965 -3.93996e-23)
(-2.98727 0.181152 6.47992e-19)
(-3.00104 0.179865 6.53449e-19)
(-3.014 0.17961 -6.58017e-19)
(-3.02587 0.178356 6.62482e-19)
(-3.03729 0.177583 -8.16217e-23)
(-3.04523 0.176115 8.15722e-23)
(-3.05501 0.174696 -6.74462e-19)
(-3.06782 0.173621 -6.79104e-19)
(-3.07737 0.172381 8.31246e-23)
(-3.08774 0.17127 -4.20635e-23)
(-3.09804 0.169826 6.91026e-19)
(-3.10686 0.168228 -6.9488e-19)
(-3.11396 0.167333 1.17549e-38)
(-3.12395 0.165112 -4.02457e-23)
(-3.14248 0.164846 4.30669e-23)
(-3.14851 0.162788 -7.00978e-19)
(-3.15561 0.161515 -7.14086e-19)
(-3.16617 0.159582 7.16462e-19)
(-3.17447 0.157771 -7.21104e-19)
(-3.18779 0.156675 -7.25043e-19)
(-3.19683 0.154538 4.43247e-23)
(-3.20865 0.153529 9.68577e-40)
(-3.21771 0.151493 1.1052e-34)
(-3.22616 0.149862 7.38746e-19)
(-3.23395 0.148082 -2.5093e-25)
(-3.24271 0.146205 4.54628e-23)
(-3.25321 0.144599 7.51617e-19)
(-3.26301 0.142261 -7.55901e-19)
(-3.27544 0.140995 4.18711e-35)
(-3.28595 0.138382 -1.52777e-18)
(-3.29625 0.136762 -4.69971e-23)
(-3.30402 0.134654 9.42447e-23)
(-3.3144 0.132867 -9.49198e-23)
(-3.32309 0.130649 4.74987e-23)
(-3.33038 0.128576 -4.79966e-23)
(-3.33925 0.126535 -2.73941e-25)
(-3.35049 0.123825 -3.96623e-19)
(-3.36213 0.122274 3.988e-19)
(-1.76238 -0.207206 -1.3679e-23)
(-1.75364 -0.206809 -1.97994e-19)
(-1.75213 -0.206662 5.66775e-24)
(-3.37751 0.114578 4.04508e-19)
(-3.38907 0.112652 -4.07087e-19)
(-3.40278 0.109851 -1.7174e-35)
(-3.41266 0.107592 -8.23295e-19)
(-3.42138 0.105142 4.4081e-39)
(-3.43186 0.102562 -8.32346e-19)
(-3.44585 0.100113 4.18454e-19)
(-3.4565 0.0973514 0)
(-3.46543 0.0945825 2.93874e-39)
(-3.47399 0.0918668 -4.24052e-19)
(-3.48109 0.0893458 -1.45908e-35)
(-3.48834 0.0865129 -5.23864e-23)
(-3.49975 0.0835413 5.23887e-23)
(-3.50822 0.0808397 2.93874e-39)
(-3.5151 0.0775955 4.34295e-19)
(-3.52811 0.0749534 -1.81261e-35)
(-3.5403 0.0716458 -4.386e-19)
(-3.55153 0.0686046 -5.38749e-23)
(-3.56032 0.0651742 -2.20964e-19)
(-3.56798 0.062259 -2.61254e-36)
(-3.57432 0.0590802 -4.45747e-19)
(-3.58222 0.0559026 0)
(-3.59102 0.052373 2.24837e-19)
(-3.60147 0.0488813 5.50139e-23)
(-3.61153 0.0455111 2.26888e-19)
(-3.62022 0.0419497 -7.34684e-40)
(-3.62893 0.0382747 0)
(-3.63721 0.0345713 3.67342e-40)
(-3.64568 0.0310032 1.15287e-19)
(-3.65416 0.0272661 1.15762e-19)
(-3.66354 0.023664 -2.86986e-42)
(-3.67403 0.01968 1.1676e-19)
(-3.68301 0.0156016 5.86145e-20)
(-3.69292 0.0119157 -9.18355e-40)
(-3.70313 0.00762876 -5.91256e-20)
(-3.71333 0.00347948 0)
(-3.72371 -0.000684509 3.72541e-21)
(-3.73272 -0.00502277 0)
(-3.74272 -0.00908254 0)
(-3.75192 -0.0136171 -1.20673e-19)
(-3.76186 -0.0179133 -2.41564e-36)
(-3.7723 -0.0223287 -1.4692e-35)
(-3.78193 -0.0269609 -1.22123e-19)
(-3.79245 -0.0317188 -1.22728e-19)
(-3.80407 -0.0367988 -4.92855e-19)
(-3.81534 -0.0415276 2.28013e-25)
(-3.82443 -0.046112 6.07182e-23)
(-3.83452 -0.0511294 -6.07129e-23)
(-3.84564 -0.0564107 -1.0744e-39)
(-3.8558 -0.0615659 3.0697e-39)
(-3.86728 -0.0668309 8.81621e-39)
(-3.87742 -0.0721689 5.06126e-19)
(-3.88955 -0.0776121 -6.18918e-23)
(-3.8991 -0.0833389 3.58732e-43)
(-3.90981 -0.0888463 -5.87747e-39)
(-3.91917 -0.0944085 -1.02676e-18)
(-3.93092 -0.100242 5.15046e-19)
(-3.94117 -0.106485 -1.03451e-18)
(-3.95286 -0.112382 -2.35099e-38)
(-3.96548 -0.118336 1.04181e-18)
(-3.97694 -0.124813 -2.35099e-38)
(-3.98706 -0.131431 -1.04943e-18)
(-3.99835 -0.137485 2.23051e-25)
(-4.00829 -0.144065 -6.43906e-23)
(-4.01923 -0.150703 -5.29954e-19)
(-4.03067 -0.157412 0)
(-4.04397 -0.164283 -2.48029e-35)
(-4.05472 -0.17145 -2.13857e-18)
(-4.06561 -0.178976 -1.07337e-18)
(-4.07731 -0.185991 -6.56634e-23)
(-4.08743 -0.193561 1.07958e-18)
(-4.09837 -0.20094 1.08336e-18)
(-4.11125 -0.208975 -1.08701e-18)
(-4.12252 -0.216623 -6.64766e-23)
(-4.13402 -0.224631 -2.18561e-18)
(-4.14778 -0.232861 -2.19124e-18)
(-4.15928 -0.241527 0)
(-4.17047 -0.249568 1.10128e-18)
(-4.18332 -0.258655 -1.3451e-22)
(-4.19401 -0.267444 5.93476e-35)
(-4.20511 -0.276324 1.35764e-22)
(-4.2179 -0.285675 -1.11441e-18)
(-4.22971 -0.294778 -6.80836e-23)
(-4.24205 -0.304787 2.2394e-18)
(-4.25715 -0.314498 -2.24609e-18)
(-4.26849 -0.324457 -1.37253e-22)
(-4.28124 -0.334751 2.25333e-18)
(-4.29166 -0.3448 -2.25701e-18)
(-4.30428 -0.355582 -1.83671e-40)
(-4.31615 -0.366327 -2.26731e-18)
(-4.32854 -0.377328 3.00489e-25)
(-4.34194 -0.388939 4.55339e-18)
(-4.35133 -0.400303 1.39158e-22)
(-4.36595 -0.41223 6.98683e-23)
(-4.37901 -0.424271 2.29115e-18)
(-4.39134 -0.436806 -1.3982e-22)
(-4.404 -0.449604 -2.29601e-18)
(-4.41635 -0.462041 2.29759e-18)
(-4.42682 -0.47566 1.40589e-22)
(-4.44038 -0.488837 -1.40662e-22)
(-4.45275 -0.502889 -2.30887e-18)
(-4.46344 -0.51726 4.6234e-18)
(-4.47576 -0.531729 1.41234e-22)
(-4.48954 -0.546605 2.31741e-18)
(-4.49797 -0.561689 -2.316e-18)
(-4.50786 -0.576849 -2.31588e-18)
(-4.52179 -0.593192 4.54231e-24)
(-4.5348 -0.612139 -4.55499e-23)
(-4.54251 -0.626568 2.32048e-18)
(-4.5573 -0.644043 0)
(-4.56622 -0.661775 -4.70198e-38)
(-1.94428 -0.200647 -6.54783e-23)
(-1.93668 -0.200685 5.21045e-19)
(-1.93254 -0.200594 0)
(-1.93306 -0.20128 0)
(-1.93398 -0.202581 4.94504e-19)
(-1.93002 -0.202251 9.73097e-19)
(-1.92784 -0.203025 4.78245e-19)
(-1.92432 -0.203057 9.41078e-19)
(-1.92086 -0.202969 -2.84377e-23)
(-1.91844 -0.203976 4.53788e-19)
(-1.91495 -0.203843 4.45894e-19)
(-1.911 -0.204082 2.64479e-23)
(-1.90776 -0.204684 -4.29226e-19)
(-1.90143 -0.204757 2.54306e-23)
(-1.89435 -0.204406 -2.54298e-23)
(-1.88776 -0.203891 0)
(-1.88341 -0.204599 0)
(-1.88092 -0.204546 2.48008e-35)
(-1.87671 -0.205261 -1.03914e-35)
(-1.86883 -0.204619 3.64931e-19)
(-1.85895 -0.203793 1.71405e-23)
(-1.8509 -0.203443 3.41856e-19)
(-1.85157 -0.204532 3.30869e-19)
(-1.84955 -0.204495 -1.15791e-24)
(-1.84353 -0.205293 -1.99969e-23)
(-1.83502 -0.204365 3.02209e-19)
(-1.82935 -0.204362 5.80147e-19)
(-1.82875 -0.205735 -2.80164e-19)
(-1.82782 -0.205469 1.68144e-23)
(-1.8245 -0.205725 0)
(-1.82073 -0.206188 -5.02491e-19)
(-1.8161 -0.2055 2.41346e-19)
(-1.81256 -0.205993 4.61103e-19)
(-1.80929 -0.206579 -2.20919e-19)
(-1.80251 -0.20561 1.47143e-35)
(-1.79581 -0.206991 -1.9922e-19)
(-1.79386 -0.206633 0)
(-1.79137 -0.206387 1.45852e-23)
(-1.78682 -0.206884 -1.21511e-23)
(-1.78435 -0.207083 -1.55816e-19)
(-4.85801 -1.22906 -4.32632e-18)
(-4.86391 -1.26918 2.13556e-23)
(-4.87206 -1.31031 -4.23817e-18)
(-4.88138 -1.35619 4.18956e-18)
(-4.89083 -1.40364 -4.32958e-34)
(-4.89373 -1.45154 -6.24079e-38)
(-4.89278 -1.50273 -1.96075e-34)
(-4.89306 -1.55505 0)
(-4.89534 -1.61641 -1.50463e-36)
(-4.89257 -1.67591 -1.49165e-17)
(-4.88434 -1.73952 7.23806e-18)
(-4.87237 -1.80763 4.70198e-38)
(-4.85403 -1.87937 6.71442e-18)
(-4.8268 -1.95281 1.28117e-17)
(-4.78687 -2.03191 -1.94098e-34)
(-4.72125 -2.10251 5.63974e-18)
(-4.59019 -2.1544 5.17963e-18)
(-4.36699 -2.17134 2.50174e-23)
(-4.08611 -2.15214 -4.08144e-18)
(-3.88862 -2.18243 -3.38515e-18)
(-3.85097 -2.32836 2.53058e-18)
(-3.90952 -2.56146 -1.50076e-18)
(-4.00464 -2.84045 -5.36997e-23)
(-4.07848 -3.19053 -9.29111e-35)
(-4.11858 -3.60019 -2.95644e-18)
(-4.04617 -4.04151 -1.02825e-17)
(-3.85661 -4.44943 -7.72732e-18)
(-3.4338 -4.80829 -7.71468e-22)
(-2.71944 -4.83767 -2.96484e-22)
(-1.76938 -4.37119 1.81469e-17)
(-0.801249 -3.30463 -1.07745e-17)
(-0.0836619 -0.0576052 5.23207e-22)
(-0.0696543 0.0355168 -1.74264e-23)
(-0.732311 3.01222 2.20375e-17)
(-1.71725 4.23678 1.88714e-17)
(-2.73855 4.87087 3.00213e-17)
(-3.49161 4.8876 -7.99357e-22)
(-3.92534 4.53027 7.96327e-18)
(-4.10718 4.10272 1.06149e-17)
(-4.17915 3.6514 3.07524e-18)
(-4.12334 3.23531 -1.25675e-18)
(-4.03768 2.86399 -5.00952e-23)
(-3.93832 2.57507 1.44387e-18)
(-3.87404 2.34227 -2.48265e-18)
(-3.91119 2.19503 3.34899e-18)
(-4.10717 2.16322 -1.88079e-37)
(-4.3909 2.18322 4.64638e-18)
(-4.61789 2.16738 -5.17301e-18)
(-4.74758 2.11424 -1.9941e-22)
(-4.81094 2.04211 -2.34723e-34)
(-4.8486 1.96164 -1.2819e-17)
(-4.86938 1.88536 -4.00828e-22)
(-4.87725 1.8095 7.52316e-37)
(-4.87797 1.73731 -7.24355e-18)
(-4.87586 1.67022 1.49197e-17)
(-4.86833 1.60732 3.8305e-18)
(-4.8516 1.5426 -3.92039e-18)
(-4.83408 1.48441 2.41501e-22)
(-4.81806 1.42917 3.76158e-37)
(-4.80144 1.37824 4.12412e-18)
(-4.77979 1.32779 -4.18283e-18)
(-4.76032 1.28029 4.23008e-18)
(-4.74329 1.23779 -1.91807e-23)
(-4.72912 1.1965 4.31855e-18)
(-4.71069 1.15677 -4.35391e-18)
(-4.69146 1.11898 1.85759e-24)
(-4.67681 1.08403 1.7102e-24)
(-4.66338 1.0504 -5.42597e-22)
(-4.64939 1.01883 5.45555e-22)
(-4.63641 0.988374 1.31562e-24)
(-4.61873 0.958075 -2.93841e-22)
(-4.6045 0.929558 -3.72011e-34)
(-4.59014 0.902515 -3.76158e-37)
(-4.58116 0.877433 -4.56423e-18)
(-4.56612 0.852122 4.5822e-18)
(-4.55303 0.827665 -4.59612e-18)
(-4.53711 0.803744 -9.20691e-18)
(-4.52447 0.781447 0)
(-4.51319 0.760021 -4.61518e-18)
(-4.50135 0.739258 -4.6203e-18)
(-4.48966 0.71885 2.82712e-22)
(-4.47786 0.699275 4.63638e-18)
(-4.4653 0.679884 2.56802e-22)
(-4.4515 0.661003 0)
(-4.43894 0.643333 -2.90367e-42)
(-4.43057 0.627607 -1.17549e-38)
(-4.41614 0.610229 -3.2528e-19)
(-4.40664 0.592716 4.1028e-18)
(-4.39378 0.57646 -3.46441e-24)
(-4.3798 0.560405 2.31319e-18)
(-4.36954 0.545567 -1.87344e-38)
(-4.35963 0.530989 2.31157e-18)
(-4.34991 0.516622 4.62154e-18)
(-4.33677 0.502592 -4.61833e-18)
(-4.32549 0.488746 2.8109e-22)
(-4.31448 0.47474 -4.60428e-18)
(-4.30124 0.462233 1.40447e-22)
(-4.29139 0.448971 -2.29553e-18)
(-4.28024 0.436973 2.29411e-18)
(-4.2689 0.424589 -1.39683e-22)
(-4.25744 0.412466 1.39722e-22)
(-4.24518 0.400745 2.27795e-41)
(-4.23402 0.389556 1.3901e-22)
(-4.22467 0.37844 -4.54908e-18)
(-4.21233 0.367209 3.07199e-25)
(-4.20127 0.356582 2.26491e-18)
(-4.19028 0.346175 4.78191e-35)
(-4.17886 0.335734 -1.42275e-22)
(-4.16925 0.326006 -2.24998e-18)
(-4.15747 0.315976 -1.37052e-22)
(-4.1471 0.306678 2.24069e-18)
(-4.13486 0.296783 -1.11698e-18)
(-4.1242 0.287476 -6.79776e-23)
(-4.11316 0.278586 1.11262e-18)
(-4.10105 0.269493 1.35558e-22)
(-4.09073 0.26087 -4.92833e-35)
(-4.08026 0.252292 -1.34272e-22)
(-4.06811 0.24343 -1.09892e-18)
(-4.05839 0.235682 -4.70198e-38)
(-4.04766 0.227243 2.18666e-18)
(-4.03474 0.219236 1.09026e-18)
(-4.02495 0.211492 -6.63096e-23)
(-4.01507 0.204092 1.08441e-18)
(-4.00317 0.19628 0)
(-3.99224 0.189062 -8.19861e-35)
(-3.98288 0.181684 -6.54883e-23)
(-3.97203 0.17487 1.07076e-18)
(-3.96053 0.167476 1.06642e-18)
(-3.9499 0.160456 1.17549e-38)
(-3.93749 0.153776 -1.17549e-38)
(-3.92721 0.147258 5.28382e-19)
(-3.91746 0.140809 -6.42057e-23)
(-3.90811 0.134395 2.18592e-25)
(-3.89691 0.128478 1.0466e-18)
(-3.88733 0.122012 0)
(-3.87619 0.115682 -5.19447e-19)
(-3.8644 0.10987 -5.17752e-19)
(-3.85426 0.10413 1.03165e-18)
(-3.84501 0.0980546 -5.13731e-19)
(-3.83374 0.0923604 5.12137e-19)
(-3.82431 0.0869107 0)
(-3.81293 0.081504 3.58732e-43)
(-3.8031 0.0758946 -6.17312e-23)
(-3.79106 0.0705615 -5.04677e-19)
(-3.78053 0.0653412 -8.81621e-39)
(-3.76931 0.0601933 2.50465e-19)
(-3.7595 0.0551515 -1.46937e-39)
(-3.74898 0.0500027 -6.05636e-23)
(-3.7386 0.0450801 6.05688e-23)
(-3.72822 0.0404841 4.93275e-19)
(-3.71758 0.0358462 2.45903e-19)
(-3.70573 0.031001 1.22324e-19)
(-3.6933 0.0263287 5.96468e-23)
(-3.68141 0.0217938 1.21384e-19)
(-3.66946 0.0174737 6.39175e-38)
(-3.65899 0.0132751 6.01755e-20)
(-3.64881 0.00885511 -4.59177e-41)
(-3.63746 0.00489113 0)
(-3.6277 0.000677607 -3.71529e-21)
(-3.61713 -0.00337742 0)
(-3.60655 -0.00741352 5.89515e-20)
(-3.5959 -0.01159 -2.47956e-39)
(-3.58471 -0.0151671 -5.84366e-20)
(-3.57375 -0.0191365 -1.16387e-19)
(-3.56199 -0.0230104 0)
(-3.55159 -0.0265048 -1.15355e-19)
(-3.54203 -0.0301117 -1.14869e-19)
(-3.53163 -0.0335579 -1.1438e-19)
(-3.5213 -0.0371177 3.67342e-40)
(-3.51034 -0.0406648 7.34684e-40)
(-3.49927 -0.0440499 -2.2583e-19)
(-3.48851 -0.0472999 5.4733e-23)
(-3.47781 -0.0506881 -2.23788e-19)
(-3.46726 -0.0540795 5.87747e-39)
(-3.45652 -0.0571134 4.43257e-19)
(-3.44716 -0.0601042 1.42058e-35)
(-3.43784 -0.0628936 5.34753e-23)
(-3.42935 -0.0662289 -5.34937e-23)
(-3.4188 -0.0691789 4.35296e-19)
(-3.4086 -0.0723971 4.33164e-19)
(-3.39854 -0.0750255 -3.21263e-35)
(-3.38914 -0.0781004 -4.29016e-19)
(-3.37953 -0.080689 5.19916e-23)
(-3.37013 -0.0835888 -5.19891e-23)
(-3.36154 -0.0862852 0)
(-3.35283 -0.0886647 9.27588e-36)
(-3.34495 -0.0912942 1.17549e-38)
(-3.33636 -0.0939652 -4.16926e-19)
(-3.32795 -0.0966811 -3.41011e-35)
(-3.31901 -0.0991925 4.12903e-19)
(-3.3109 -0.101748 4.10922e-19)
(-3.30295 -0.104136 4.0891e-19)
(-3.29639 -0.106465 4.54586e-39)
(-3.28942 -0.109283 4.05075e-19)
(-3.27928 -0.111219 -4.03322e-19)
(-3.27077 -0.113373 -8.02146e-19)
(-3.26463 -0.115921 3.99293e-19)
(-3.2571 -0.118441 -3.97652e-19)
(-3.25055 -0.120167 3.95526e-19)
(-3.24521 -0.12296 -7.87019e-19)
(-3.2329 -0.124757 -4.79645e-23)
(-3.2209 -0.126581 4.7439e-23)
(-3.21117 -0.128679 -7.75168e-19)
(-3.20139 -0.130428 7.70058e-19)
(-3.19731 -0.132651 -4.68608e-23)
(-3.19106 -0.134376 1.52279e-18)
(-3.18441 -0.13709 -1.31068e-34)
(-3.17596 -0.138479 7.53585e-19)
(-3.1686 -0.140841 -7.49591e-19)
(-3.16186 -0.142564 4.53643e-23)
(-3.15548 -0.144484 -2.4018e-25)
(-3.1481 -0.146225 -7.37284e-19)
(-3.14002 -0.147806 -1.04772e-34)
(-3.13241 -0.149911 -5.71231e-35)
(-3.12698 -0.151181 4.41359e-23)
(-3.12553 -0.153637 7.21874e-19)
(-3.11838 -0.155036 7.18164e-19)
(-3.11065 -0.156796 -2.45201e-25)
(-3.10542 -0.159025 7.09779e-19)
(-3.09588 -0.159994 7.05963e-19)
(-3.08917 -0.16217 4.2669e-23)
(-3.08332 -0.163021 -4.51567e-23)
(-3.07895 -0.165372 6.93193e-19)
(-3.07163 -0.166246 6.89294e-19)
(-3.0628 -0.167828 -6.84964e-19)
(-3.05593 -0.169474 -4.16793e-23)
(-3.04932 -0.170791 8.22992e-23)
(-3.04448 -0.172335 -5.08732e-25)
(-3.0373 -0.173816 6.67761e-19)
(-3.03015 -0.175318 8.08095e-23)
(-3.02186 -0.17675 -8.08581e-23)
(-3.01069 -0.177516 -6.55733e-19)
(-3.00114 -0.178916 1.03803e-24)
(-2.99614 -0.179707 -2.35099e-38)
(-2.98787 -0.181284 -6.41388e-19)
(-2.98496 -0.182626 -3.90027e-23)
(-2.97732 -0.18422 6.33656e-19)
(-2.97973 -0.186192 3.23567e-23)
(-2.97556 -0.187199 5.11797e-19)
(-2.95538 -0.187768 -2.84759e-25)
(-2.9467 -0.189138 -3.79356e-23)
(-2.94388 -0.190123 -3.74978e-23)
(-2.94312 -0.191344 7.47853e-23)
(-2.93596 -0.192521 6.09726e-19)
(-2.92734 -0.193394 6.06454e-19)
(-2.91853 -0.194582 -3.70996e-23)
(-2.90887 -0.195447 3.63603e-23)
(-2.89579 -0.196249 -1.09545e-22)
(-2.88332 -0.196589 7.24782e-23)
(-2.87164 -0.197362 -5.89237e-19)
(-2.86191 -0.197965 -5.85769e-19)
(-2.85033 -0.198627 5.81844e-19)
(-2.83915 -0.198898 7.03874e-23)
(-2.82902 -0.199677 -7.03119e-23)
(-2.82052 -0.200626 0)
(-2.80964 -0.201625 3.46278e-23)
(-2.79691 -0.201948 -1.62129e-25)
(-2.7837 -0.202445 -5.63939e-19)
(-2.76795 -0.202386 3.39617e-23)
(-2.7538 -0.203077 -1.02317e-22)
(-2.74021 -0.202576 5.55578e-19)
(-2.72486 -0.203195 -3.05573e-25)
(-2.70887 -0.202816 1.10071e-18)
(-2.69131 -0.202991 -5.47992e-19)
(-2.67311 -0.20288 5.45512e-19)
(-2.65192 -0.202268 -6.64085e-23)
(-2.63286 -0.202084 4.58443e-36)
(-2.6107 -0.201953 -1.07175e-18)
(-2.58968 -0.201132 4.70198e-38)
(-2.57147 -0.201207 1.05701e-18)
(-2.55125 -0.200299 -1.56557e-24)
(-2.53404 -0.200157 3.15472e-23)
(-2.51702 -0.200082 2.07561e-18)
(-2.50054 -0.199672 -1.03204e-18)
(-2.4801 -0.199094 1.02791e-18)
(-2.46083 -0.19835 6.21309e-23)
(-2.44579 -0.19855 2.02978e-18)
(-2.42904 -0.198089 -3.59343e-25)
(-2.41038 -0.19768 -3.02921e-23)
(-2.39289 -0.197249 9.97809e-19)
(-2.37719 -0.196657 9.90349e-19)
(-2.361 -0.196232 5.98999e-23)
(-2.3452 -0.19601 -5.98984e-23)
(-2.33284 -0.195839 -3.99198e-35)
(-2.31888 -0.195573 1.92907e-18)
(-2.30289 -0.19555 8.62734e-23)
(-2.28955 -0.195419 -5.97329e-23)
(-2.27837 -0.195299 -9.43394e-19)
(-2.26552 -0.195034 9.36617e-19)
(-2.25352 -0.194728 -9.29159e-19)
(-2.23973 -0.194059 9.20783e-19)
(-2.22925 -0.194299 5.73168e-23)
(-2.21673 -0.194019 9.06188e-19)
(-2.20462 -0.193775 8.96271e-19)
(-2.1968 -0.194049 5.3988e-23)
(-2.18748 -0.194367 8.80661e-19)
(-2.18049 -0.194105 8.73493e-19)
(-2.17145 -0.194279 0)
(-2.16102 -0.194132 -8.5725e-19)
(-2.14955 -0.193588 -8.48148e-19)
(-2.13878 -0.19388 -8.3902e-19)
(-2.1301 -0.193337 0)
(-2.12358 -0.194612 1.77425e-38)
(-2.11506 -0.193784 0)
(-2.10719 -0.193982 -1.60531e-18)
(-2.10192 -0.194323 7.94591e-19)
(-2.09698 -0.1945 -7.86014e-19)
(-2.09076 -0.194832 -5.10064e-25)
(-2.08353 -0.19479 -7.69695e-19)
(-2.07674 -0.195038 4.675e-23)
(-2.07044 -0.195266 -8.60958e-42)
(-2.06878 -0.195958 -2.26362e-23)
(-2.06369 -0.195631 6.73412e-23)
(-2.05852 -0.196377 -4.46822e-23)
(-2.05505 -0.196609 7.20017e-19)
(-2.04942 -0.196722 -7.11757e-19)
(-2.04364 -0.197127 -1.40787e-18)
(-2.03827 -0.196855 4.26737e-23)
(-2.03701 -0.197651 1.37361e-18)
(-2.0339 -0.198277 -6.22962e-23)
(-2.03104 -0.198489 2.06114e-23)
(-2.02499 -0.198474 -8.21497e-40)
(-2.0202 -0.199089 3.97524e-23)
(-2.01516 -0.199012 6.473e-19)
(-2.01254 -0.199417 -1.27901e-18)
(-2.00693 -0.19982 -1.26268e-18)
(-2.00181 -0.199762 1.24646e-18)
(-1.99613 -0.200039 4.70198e-38)
(-1.98807 -0.199537 4.00345e-39)
(-1.98171 -0.200098 -3.61323e-23)
(-1.9763 -0.199793 3.61171e-23)
(-1.97125 -0.199968 -3.49524e-23)
(-1.96481 -0.20058 3.49646e-23)
(-1.9635 -0.200665 4.70198e-38)
(-1.96097 -0.200732 -5.49958e-19)
(-1.95506 -0.20081 6.54375e-23)
(-1.78176 -0.207419 -1.45177e-19)
(-1.77799 -0.207809 7.8884e-24)
(-1.7733 -0.208304 -6.8386e-25)
(-1.75252 -0.208194 2.93874e-39)
(-1.75044 -0.207235 6.3821e-20)
(-1.74616 -0.208397 5.19572e-20)
(-1.74314 -0.207796 4.16509e-24)
(-1.73796 -0.209272 -4.1676e-24)
(-1.73312 -0.208038 9.18355e-41)
(-1.7291 -0.208922 -2.73306e-21)
(-1.72571 -0.20853 9.89338e-21)
(-1.72201 -0.209021 2.2781e-20)
(-1.71736 -0.209023 3.5319e-20)
(-1.71036 -0.208573 -4.90836e-20)
(-1.70549 -0.20876 -6.3118e-20)
(-1.70191 -0.208848 7.34684e-40)
(-1.70036 -0.209633 -9.00294e-20)
(-1.69453 -0.208362 0)
(-1.68685 -0.208846 2.24208e-44)
(-1.68129 -0.208124 -4.09218e-24)
(-1.67516 -0.208263 1.45084e-19)
(-1.67078 -0.208777 -4.69022e-36)
(-1.66548 -0.207895 -1.73984e-19)
(-1.65737 -0.208498 3.41546e-23)
(-1.64872 -0.20679 -1.20008e-23)
(-1.64177 -0.207868 2.20027e-19)
(-1.63502 -0.207308 2.35832e-19)
(-1.62721 -0.206138 1.17549e-38)
(-1.61906 -0.205956 5.35509e-19)
(-1.6068 -0.204978 -3.58354e-23)
(-1.5949 -0.204472 3.58497e-23)
(-1.58253 -0.203481 2.01907e-23)
(-1.57028 -0.202258 -3.40681e-19)
(-1.56566 -0.203175 3.59676e-19)
(-1.55857 -0.201173 -2.56258e-36)
(-1.54486 -0.200671 7.89058e-19)
(-1.52393 -0.199281 -5.49467e-24)
(-1.50334 -0.196831 -4.70198e-38)
(-1.4953 -0.196434 -9.21028e-19)
(-1.48527 -0.194965 -4.80353e-19)
(-1.46759 -0.193189 -5.02429e-19)
(-1.45065 -0.191771 -6.27748e-23)
(-1.43515 -0.191505 1.1012e-18)
(-1.42469 -0.188728 -7.149e-23)
(-1.41325 -0.18841 7.14234e-23)
(-1.39833 -0.186954 -7.71591e-23)
(-1.37519 -0.184164 -6.44229e-19)
(-1.35166 -0.183661 6.72704e-19)
(-1.32569 -0.17775 -4.18896e-23)
(-1.29884 -0.175498 7.29678e-19)
(-1.27315 -0.172727 -7.59968e-19)
(-1.24537 -0.169428 4.00086e-24)
(-1.2247 -0.167012 -2.01518e-22)
(-1.203 -0.164559 2.0937e-22)
(-1.17193 -0.160809 -2.17485e-22)
(-1.13531 -0.156065 1.10833e-22)
(-1.10053 -0.151971 0)
(-1.05975 -0.146712 -1.0005e-18)
(-1.05366 -0.146437 2.53777e-22)
(-1.06905 -0.149517 -2.61026e-22)
(-1.29128 -0.138098 4.10183e-25)
)
;
    }
}


// ************************************************************************* //
