# Wall shear stress
# Time        	patch         	min           	max           
2.000000e+02	aerofoil	(-4.453131e+00 -6.140269e+00 -3.606008e-17)	(8.337953e-01 7.635639e-01 4.087714e-17)
