# Wall shear stress
# Time        	patch         	min           	max           
4.000000e+02	aerofoil	(-5.246897e+00 -7.597007e+00 -4.307993e-17)	(1.229784e+00 1.181053e+00 5.392206e-17)
