# Wall shear stress
# Time        	patch         	min           	max           
3.130000e+02	walls	(-1.759519e+00 -1.845256e+00 -7.258076e-16)	(2.484602e-02 1.296679e-01 3.864788e-16)
