/*--------------------------------*- C++ -*----------------------------------*\
  =========                 |
  \\      /  F ield         | OpenFOAM: The Open Source CFD Toolbox
   \\    /   O peration     | Website:  https://openfoam.org
    \\  /    A nd           | Version:  10
     \\/     M anipulation  |
\*---------------------------------------------------------------------------*/
FoamFile
{
    format      ascii;
    class       volScalarField;
    location    "200";
    object      k;
}
// * * * * * * * * * * * * * * * * * * * * * * * * * * * * * * * * * * * * * //

dimensions      [0 2 -2 0 0 0 0];

internalField   nonuniform List<scalar> 
96890
(
0.00231845
0.0804513
0.701597
2.44037
4.136
5.17839
5.76009
6.05589
6.17558
6.18121
6.10223
5.95571
5.75147
5.49402
5.18402
4.82108
4.40073
3.90024
3.28184
2.55483
1.76755
0.950786
0.262944
0.00461679
0.159133
1.31907
3.86635
5.67387
6.59279
6.95023
6.98999
6.84815
6.60341
6.29409
5.94432
5.5687
5.17384
4.75985
4.3206
3.85071
3.38069
3.00942
2.76495
2.56298
2.36279
2.02964
0.00461296
0.158928
1.31688
3.86373
5.67645
6.60307
6.96744
7.01399
6.88043
6.64337
6.34156
5.9986
5.62867
5.2384
4.82786
4.39034
3.92159
3.45461
3.08762
2.84252
2.63846
2.4341
2.09282
0.00173597
0.0600714
0.526725
1.93817
3.50672
4.54652
5.18472
5.57038
5.79016
5.89147
5.89978
5.83159
5.69744
5.49967
5.24301
4.92201
4.53611
4.07856
3.51751
2.83389
2.06458
1.25146
0.469524
3.4461e-05
0.00103761
0.00821617
0.0459664
0.15914
0.346117
0.615367
0.914188
1.24101
1.58338
1.90273
2.20276
2.47176
2.73685
2.97121
3.15809
3.29137
3.37218
3.41132
3.42226
3.39993
3.37111
3.31477
0.00183632
0.0635782
0.557808
2.04875
3.6777
4.74005
5.37832
5.74196
5.93152
6.00235
5.98257
5.8897
5.73141
5.51251
5.23539
4.90186
4.5074
4.03969
3.46314
2.76477
1.98645
1.16605
0.404193
0.00181398
0.0627952
0.550971
2.02633
3.64632
4.7031
5.34293
5.71038
5.90401
5.97865
5.96346
5.87514
5.72063
5.50557
5.23228
4.90375
4.51837
4.0579
3.48745
2.79339
2.01746
1.2002
0.430228
0.0021933
0.0758954
0.660449
2.33159
4.00874
5.05465
5.64966
5.96217
6.09919
6.12017
6.05524
5.92159
5.72893
5.48186
5.18197
4.8291
4.4189
3.93098
3.32617
2.60817
1.82385
0.999956
0.290725
0.00214106
0.0740926
0.645503
2.2916
3.96342
5.01007
5.61102
5.92953
6.07222
6.09932
6.04007
5.91139
5.72317
5.48019
5.18399
4.83466
4.42779
3.94417
3.3443
2.62979
1.84735
1.0213
0.303779
0.00208758
0.0722354
0.629915
2.24936
3.91519
4.96503
5.57322
5.899
6.04902
6.08228
6.02883
5.90521
5.72143
5.4822
5.1893
4.84327
4.43924
3.95946
3.36448
2.65326
1.8722
1.04495
0.318194
0.00203122
0.0702894
0.613735
2.20507
3.8644
4.9175
5.53263
5.86746
6.0261
6.06696
6.02019
5.90229
5.72321
5.48777
5.19793
4.85485
4.45329
3.97693
3.38679
2.67865
1.89802
1.07111
0.335558
0.00196888
0.0681403
0.595972
2.15687
3.80746
4.86577
5.48908
5.83343
6.00103
6.05038
6.01129
5.90006
5.72657
5.49547
5.20914
4.86891
4.46956
3.99628
3.41078
2.7057
1.92533
1.10029
0.356125
0.00190917
0.0660785
0.578665
2.10867
3.75123
4.81313
5.44361
5.79729
5.97484
6.03407
6.00348
5.89949
5.73183
5.50523
5.22234
4.88482
4.48786
4.01752
3.43667
2.7344
1.95426
1.13121
0.378161
0.0022478
0.0777679
0.6758
2.37115
4.05536
5.10207
5.69304
5.99937
6.12921
6.14428
6.07386
5.93491
5.73748
5.48646
5.18298
4.82673
4.41317
3.92107
3.31184
2.59056
1.80493
0.983332
0.281407
0.00195088
0.0686677
0.603689
2.07555
3.59787
4.56641
5.13403
5.46817
5.65791
5.756
5.7706
5.70365
5.56524
5.36548
5.10849
4.79668
4.4517
4.03007
3.48088
2.80374
2.04547
1.24405
0.47208
0.00229578
0.0794267
0.689484
2.40728
4.09787
5.14359
5.72933
6.0298
6.15332
6.16326
6.08792
5.94486
5.74393
5.48968
5.18301
4.82355
4.4067
3.91055
3.29683
2.57278
1.78621
0.966944
0.271555
0.00268302
0.0931288
0.807546
2.72269
4.46812
5.50577
6.06088
6.32233
6.40565
6.37485
6.26056
6.08008
5.84341
5.55504
5.21603
4.82601
4.38088
3.85501
3.21372
2.47708
1.69205
0.886547
0.22353
0.00236839
0.0822232
0.715849
2.47572
4.17931
5.22098
5.7988
6.09014
6.20553
6.20687
6.12358
5.97277
5.76439
5.50287
5.18896
4.82223
4.39805
3.89377
3.27143
2.54188
1.75467
0.940883
0.256598
0.00243894
0.0843663
0.729996
2.51189
4.22054
5.26198
5.83551
6.1217
6.23246
6.22961
6.14206
5.98744
5.77536
5.51009
5.19261
4.82246
4.39503
3.88718
3.26144
2.52983
1.74277
0.931527
0.251115
0.00248174
0.0858544
0.74226
2.54386
4.25772
5.29839
5.86862
6.15169
6.2585
6.2522
6.161
6.00267
5.78681
5.51783
5.19677
4.82326
4.39261
3.8817
3.25307
2.51975
1.73293
0.923951
0.24707
0.00252273
0.0872708
0.753932
2.57421
4.29289
5.33216
5.9001
6.1804
6.28411
6.2741
6.17917
6.01711
5.79746
5.52491
5.20048
4.82394
4.39038
3.87674
3.24562
2.51106
1.72469
0.917665
0.243326
0.00254073
0.0881432
0.76424
2.60263
4.326
5.36584
5.93271
6.21008
6.31027
6.29597
6.19722
6.03109
5.80776
5.53162
5.20402
4.82452
4.38836
3.87229
3.23905
2.50347
1.71748
0.911731
0.239981
0.00257752
0.0894955
0.775138
2.6335
4.36091
5.4018
5.96589
6.23963
6.33552
6.31694
6.21426
6.04434
5.81734
5.53793
5.20739
4.82529
4.38688
3.8688
3.23384
2.49792
1.71237
0.907627
0.237536
0.0026427
0.0914316
0.787379
2.66321
4.39423
5.43422
5.9957
6.26634
6.35839
6.33577
6.22909
6.05572
5.82557
5.54349
5.21051
4.82634
4.38613
3.86644
3.23059
2.49511
1.71023
0.905769
0.23624
0.00267133
0.0924236
0.795469
2.68373
4.42198
5.46184
6.02175
6.28886
6.37701
6.35104
6.24121
6.06482
5.83202
5.54773
5.21271
4.82673
4.38482
3.86303
3.22555
2.48967
1.70453
0.899311
0.231853
0.00267859
0.0928056
0.80233
2.70368
4.44647
5.48439
6.04181
6.30659
6.39192
6.36309
6.25063
6.07202
5.83728
5.55106
5.21421
4.82634
4.38281
3.8591
3.21992
2.48395
1.69895
0.893623
0.228049
0.00323118
0.112062
0.9604
3.10031
4.90314
5.93991
6.47131
6.70453
6.75712
6.6976
6.55639
6.35178
6.09412
5.78792
5.43386
5.03071
4.56758
4.01715
3.34895
2.58541
1.75912
0.90083
0.212183
0.00327342
0.113382
0.968379
3.11764
4.92296
5.95996
6.49074
6.72399
6.77652
6.71687
6.57546
6.37056
6.11245
5.80554
5.45032
5.0457
4.58094
4.02901
3.35918
2.59367
1.7655
0.905268
0.213384
0.00271887
0.0943812
0.817907
2.75106
4.49834
5.53521
6.0887
6.34791
6.42834
6.39472
6.27736
6.094
5.85445
5.56336
5.22185
4.82993
4.38329
3.85623
3.2139
2.47694
1.69238
0.886491
0.22218
0.00277605
0.0962383
0.830382
2.77611
4.52654
5.56172
6.11247
6.36879
6.44637
6.41038
6.29055
6.10469
5.8628
5.56958
5.22637
4.83315
4.38562
3.85747
3.21411
2.47693
1.69244
0.88549
0.220866
0.00283272
0.0979979
0.841837
2.79916
4.55146
5.58681
6.13539
6.38905
6.46442
6.42604
6.30389
6.11566
5.87151
5.57632
5.2315
4.83718
4.38886
3.85975
3.21541
2.47802
1.69329
0.884903
0.21953
0.00283093
0.0982439
0.84808
2.81819
4.57248
5.60906
6.15697
6.40893
6.48203
6.44155
6.31712
6.12674
5.88044
5.58337
5.23715
4.84203
4.39308
3.86307
3.21778
2.48024
1.69507
0.884947
0.218534
0.00285381
0.0991469
0.856
2.83862
4.5982
5.6333
6.17857
6.42888
6.49992
6.45709
6.33025
6.13757
5.88938
5.5909
5.24361
4.84781
4.39822
3.86737
3.22116
2.48324
1.69734
0.885053
0.217537
0.00290468
0.100563
0.864353
2.85629
4.62034
5.65623
6.2003
6.4486
6.51732
6.47194
6.34291
6.14815
5.89835
5.59866
5.25062
4.85436
4.40436
3.87271
3.2255
2.48703
1.70026
0.885621
0.216905
0.00293211
0.101577
0.871717
2.87575
4.64354
5.67772
6.22043
6.4664
6.5331
6.48583
6.3551
6.15878
5.90758
5.60687
5.25824
4.8617
4.41134
3.8789
3.23061
2.49145
1.70348
0.886306
0.216393
0.00298971
0.103355
0.882101
2.898
4.66516
5.69845
6.23983
6.48419
6.54875
6.49955
6.36713
6.16956
5.91745
5.61599
5.26698
4.87016
4.41943
3.88616
3.23675
2.49656
1.70697
0.887178
0.215975
0.0030376
0.104867
0.8911
2.91772
4.68636
5.71826
6.25799
6.5006
6.56393
6.51345
6.3797
6.18093
5.92796
5.62595
5.2766
4.87962
4.42846
3.89422
3.2436
2.50221
1.71078
0.888076
0.215439
0.00306209
0.10571
0.897878
2.93453
4.70732
5.73778
6.27627
6.51728
6.57904
6.52722
6.39242
6.19294
5.9393
5.6369
5.28728
4.89005
4.43823
3.90287
3.25095
2.50818
1.71457
0.88904
0.215093
0.00305608
0.105641
0.901239
2.94678
4.72519
5.75659
6.294
6.53407
6.5946
6.54164
6.40588
6.20575
5.95164
5.64888
5.29889
4.90136
4.44863
3.91211
3.25891
2.51463
1.71869
0.890271
0.214839
0.00304964
0.105629
0.905912
2.9619
4.74205
5.77563
6.31086
6.54995
6.60964
6.55607
6.41978
6.21907
5.96454
5.66137
5.31093
4.91289
4.45933
3.92175
3.26732
2.52115
1.72284
0.891532
0.214696
0.00310158
0.10728
0.915421
2.98092
4.75913
5.7928
6.32843
6.56635
6.62523
6.57109
6.43427
6.2331
5.9782
5.67444
5.32346
4.92486
4.4704
3.93185
3.27597
2.52791
1.72707
0.892981
0.214646
0.00310102
0.107329
0.917987
2.99285
4.77712
5.81034
6.34612
6.58351
6.64183
6.58712
6.44981
6.24797
5.9924
5.688
5.33632
4.93721
4.48191
3.9422
3.28491
2.53495
1.73131
0.894368
0.214589
0.00310185
0.107573
0.923379
3.00648
4.79452
5.82869
6.36445
6.60171
6.65943
6.60374
6.46554
6.26311
6.00679
5.70175
5.34947
4.94974
4.49336
3.95268
3.29411
2.54211
1.73559
0.89596
0.214575
0.00315526
0.109324
0.933605
3.02546
4.81708
5.85027
6.38335
6.61977
6.67687
6.62057
6.48164
6.27841
6.02129
5.71546
5.36248
4.96219
4.50491
3.96329
3.30373
2.55
1.74039
0.898044
0.214891
0.00320168
0.110784
0.942805
3.04507
4.83575
5.86941
6.40169
6.63754
6.69378
6.63665
6.49688
6.29302
6.03529
5.72886
5.37524
4.97449
4.51651
3.9741
3.31331
2.55745
1.74466
0.899378
0.214729
0.00324418
0.111987
0.949779
3.06177
4.85229
5.88683
6.41936
6.65467
6.70994
6.65197
6.51149
6.30681
6.04846
5.74155
5.38761
4.9866
4.52787
3.98454
3.32253
2.56489
1.74913
0.90134
0.21483
0.00324238
0.112075
0.952962
3.07455
4.86823
5.90332
6.43599
6.67077
6.72508
6.66629
6.52505
6.3196
6.0608
5.75371
5.39985
4.9989
4.53965
3.99523
3.33224
2.57339
1.75526
0.90498
0.216043
0.00325957
0.112672
0.957965
3.0856
4.88383
5.91947
6.45119
6.6853
6.73847
6.67858
6.53662
6.33083
6.072
5.76527
5.41164
5.0104
4.55002
4.0036
3.33891
2.57841
1.75735
0.903897
0.215022
0.00324293
0.112246
0.958563
3.09079
4.89225
5.92987
6.46227
6.69592
6.74845
6.6882
6.54622
6.34074
6.08252
5.77624
5.42268
5.02075
4.55908
4.01085
3.34468
2.58297
1.75938
0.90339
0.214257
0.00405958
0.140987
1.1908
3.64363
5.54541
6.62267
7.17298
7.41726
7.47897
7.42616
7.2893
7.08614
6.82637
6.51463
6.15199
5.73909
5.26073
4.68417
3.95367
3.0718
2.07841
1.03344
0.235121
0.0040828
0.141632
1.19437
3.65536
5.5614
6.64083
7.19096
7.43584
7.4978
7.44521
7.30852
7.10536
6.84543
6.53335
6.1702
5.7566
5.27719
4.69881
3.96488
3.07811
2.08025
1.03242
0.234526
0.00409786
0.14183
1.1946
3.66126
5.57436
6.65408
7.2049
7.4507
7.51293
7.46083
7.32458
7.12173
6.86197
6.54977
6.18632
5.77225
5.29181
4.71156
3.97413
3.08268
2.08026
1.02958
0.233474
0.00411278
0.14235
1.19896
3.67167
5.5885
6.66799
7.21893
7.46562
7.52878
7.47738
7.3415
7.13877
6.87903
6.56668
6.20284
5.78801
5.30644
4.7241
3.98305
3.08683
2.08
1.02665
0.232323
0.00410085
0.142289
1.20189
3.68145
5.59969
6.68104
7.23385
7.48104
7.54462
7.4936
7.35807
7.15564
6.89591
6.5833
6.2189
5.80339
5.32062
4.73605
3.99135
3.09035
2.0792
1.02335
0.231154
0.0032984
0.114255
0.975009
3.12981
4.93697
5.97524
6.50725
6.74023
6.79301
6.73302
6.59163
6.38673
6.12836
5.82087
5.46473
5.05905
4.59299
4.03946
3.3682
2.60124
1.77096
0.90839
0.214265
0.00331856
0.114881
0.978958
3.14116
4.95206
5.992
6.52477
6.75732
6.80979
6.75008
6.6089
6.40395
6.1452
5.837
5.47988
5.073
4.60513
4.04998
3.37734
2.60913
1.77703
0.912181
0.215275
0.00333021
0.115363
0.984471
3.15715
4.96958
6.00894
6.54101
6.77426
6.82709
6.76767
6.62652
6.42126
6.16198
5.85295
5.4947
5.08634
4.61678
4.06034
3.38687
2.61745
1.78341
0.916165
0.216377
0.00334711
0.115955
0.990348
3.16979
4.98403
6.02524
6.55844
6.7923
6.84541
6.78597
6.64448
6.43863
6.17862
5.86876
5.50945
5.09953
4.62859
4.07124
3.39698
2.62618
1.79017
0.920461
0.217546
0.00334175
0.11593
0.992799
3.18164
4.99891
6.04218
6.57642
6.81057
6.86372
6.80409
6.66221
6.45597
6.19535
5.88467
5.52407
5.11274
4.64052
4.08245
3.40754
2.63546
1.79748
0.92495
0.218742
0.00336262
0.116659
0.99787
3.19508
5.01538
6.05885
6.59464
6.82899
6.88208
6.82214
6.67978
6.47307
6.21184
5.90024
5.5385
5.12584
4.65256
4.09388
3.41836
2.64513
1.80517
0.929771
0.220025
0.00338433
0.117546
1.00421
3.20722
5.03208
6.07695
6.61261
6.84694
6.8997
6.83962
6.69697
6.48982
6.22805
5.91559
5.55266
5.13877
4.6644
4.10525
3.42941
2.65507
1.81304
0.934682
0.221279
0.00342891
0.118793
1.0105
3.22004
5.04712
6.0944
6.63029
6.86506
6.91735
6.8567
6.714
6.50654
6.24408
5.93056
5.56645
5.15128
4.6761
4.11691
3.44091
2.66537
1.82124
0.939586
0.222504
0.0034767
0.120074
1.01835
3.23626
5.06501
6.11193
6.64704
6.88138
6.9341
6.87393
6.73095
6.52297
6.25973
5.94524
5.5799
5.16357
4.68801
4.12904
3.453
2.67619
1.82974
0.944621
0.22368
0.00346452
0.119909
1.01931
3.24497
5.0772
6.12759
6.66403
6.89901
6.95175
6.89112
6.74782
6.53937
6.27515
5.95951
5.59291
5.17581
4.70024
4.14167
3.46551
2.68733
1.83832
0.949672
0.224909
0.00346147
0.120009
1.0245
3.25865
5.09328
6.14386
6.68058
6.91542
6.96878
6.9084
6.76467
6.55535
6.29021
5.97349
5.60595
5.18835
4.71292
4.15502
3.47861
2.69879
1.84715
0.954732
0.226074
0.00347433
0.120689
1.0305
3.26794
5.10794
6.16
6.69796
6.93373
6.98657
6.9254
6.78104
6.57101
6.30487
5.98715
5.61903
5.2012
4.72623
4.16879
3.49215
2.71061
1.85607
0.959953
0.22739
0.00348778
0.121159
1.03536
3.28197
5.12263
6.17612
6.71445
6.95035
7.0028
6.94139
6.79641
6.58563
6.31881
6.00052
5.63195
5.21419
4.73989
4.18317
3.50603
2.72246
1.8649
0.965002
0.228726
0.00348271
0.121279
1.04124
3.29708
5.13677
6.19075
6.72973
6.96586
7.01841
6.95673
6.81125
6.5999
6.33249
6.01376
5.64499
5.22752
4.75405
4.19787
3.51998
2.73444
1.87397
0.970335
0.230131
0.00350278
0.121977
1.04685
3.31069
5.15335
6.20794
6.74652
6.98191
7.0341
6.97185
6.82592
6.614
6.34612
6.02709
5.65844
5.24153
4.76868
4.21286
3.53422
2.74659
1.88297
0.975475
0.231564
0.00355327
0.123431
1.05361
3.32347
5.1695
6.22432
6.76238
6.99732
7.04941
6.98681
6.84033
6.62804
6.35995
6.04077
5.67226
5.25579
4.78378
4.22826
3.54861
2.75874
1.89199
0.980719
0.232904
0.00359842
0.124692
1.05871
3.3347
5.18613
6.24151
6.77894
7.01252
7.06399
7.00118
6.85465
6.64212
6.37377
6.05465
5.6865
5.27074
4.79946
4.24398
3.56332
2.77129
1.9014
0.986035
0.234248
0.00361573
0.125285
1.06356
3.34704
5.19952
6.25466
6.79292
7.02712
7.0787
7.01576
6.86897
6.65643
6.38824
6.06926
5.7014
5.28634
4.81573
4.2602
3.57841
2.78416
1.91097
0.991338
0.235642
0.00364096
0.126061
1.07015
3.36127
5.21423
6.26955
6.80712
7.04154
7.09311
7.03029
6.88358
6.671
6.40287
6.08417
5.71694
5.30265
4.83237
4.27659
3.59341
2.79688
1.92053
0.996549
0.236923
0.00365105
0.126505
1.07334
3.37067
5.22631
6.28403
6.82213
7.05601
7.10732
7.04446
6.89789
6.68568
6.41783
6.09955
5.7329
5.3192
4.84913
4.29298
3.60864
2.80997
1.93033
1.0017
0.238239
0.00364375
0.126465
1.07749
3.38075
5.23765
6.29528
6.83494
7.07018
7.12173
7.05918
6.91278
6.70075
6.43321
6.1154
5.74919
5.33599
4.86599
4.30944
3.62376
2.82292
1.93994
1.00658
0.239439
0.00363404
0.12653
1.08132
3.39073
5.25332
6.31134
6.85022
7.08492
7.13654
7.07403
6.92806
6.71628
6.44913
6.13168
5.76575
5.35289
4.88296
4.326
3.63912
2.83591
1.94952
1.01133
0.240483
0.00370736
0.128449
1.08968
3.40925
5.26926
6.32713
6.86595
7.09999
7.15169
7.08933
6.94359
6.73204
6.46522
6.14806
5.78247
5.36998
4.90005
4.34259
3.65448
2.84895
1.9589
1.01586
0.241454
0.00376136
0.129911
1.09794
3.42679
5.2833
6.3411
6.87985
7.11454
7.1667
7.10478
6.95934
6.74821
6.48159
6.16462
5.79932
5.38716
4.9173
4.35956
3.67012
2.86209
1.96834
1.02024
0.242378
0.00377806
0.130489
1.10244
3.4376
5.29734
6.35615
6.89485
7.1295
7.18207
7.12052
6.97523
6.7643
6.49787
6.18113
5.81621
5.40452
4.9348
4.37669
3.6859
2.87531
1.97766
1.02441
0.243287
0.00382492
0.13179
1.10874
3.45035
5.31234
6.3702
6.90931
7.14477
7.19735
7.13602
6.99084
6.78017
6.51408
6.19784
5.83332
5.4222
4.95263
4.39403
3.70184
2.88852
1.98688
1.02843
0.243986
0.00380657
0.131474
1.11015
3.45545
5.32426
6.38444
6.92317
7.15926
7.21229
7.15125
7.00649
6.79602
6.53021
6.2144
5.85059
5.44009
4.97064
4.41157
3.71801
2.9018
1.99604
1.03216
0.244704
0.00379167
0.131373
1.11286
3.46484
5.33643
6.39717
6.93698
7.17296
7.2268
7.16609
7.02156
6.81153
6.54631
6.23125
5.86821
5.45834
4.98897
4.42928
3.7341
2.91506
2.00474
1.03552
0.24519
0.00377833
0.131076
1.11319
3.47348
5.34804
6.40965
6.95108
7.18783
7.24155
7.18118
7.03709
6.82755
6.56286
6.24849
5.88625
5.47704
5.00765
4.44719
3.75016
2.92797
2.01321
1.03862
0.24559
0.00376935
0.131076
1.11799
3.48349
5.3612
6.42339
6.96512
7.20212
7.25658
7.19661
7.0528
6.84374
6.57989
6.2665
5.90513
5.49641
5.02662
4.46516
3.76606
2.94065
2.02123
1.04125
0.245906
0.00381434
0.132324
1.124
3.49533
5.37567
6.43981
6.9806
7.21738
7.27158
7.2118
7.06877
6.86067
6.59775
6.28522
5.9245
5.51599
5.04574
4.48319
3.78214
2.95334
2.02898
1.04365
0.246043
0.00386165
0.133629
1.13176
3.51154
5.38758
6.45349
6.99451
7.23198
7.28734
7.22844
7.08599
6.8786
6.61637
6.30464
5.94447
5.53601
5.06506
4.50129
3.79838
2.96568
2.0362
1.04566
0.246102
0.00388047
0.134596
1.13964
3.52273
5.40275
6.46842
7.01087
7.2484
7.30378
7.24541
7.10372
6.89723
6.63596
6.3249
5.96488
5.55615
5.08431
4.51945
3.81436
2.97761
2.04307
1.04748
0.246038
0.00393181
0.136057
1.14614
3.53591
5.41959
6.48465
7.02733
7.26544
7.32103
7.26331
7.12244
6.91671
6.65609
6.34534
5.98525
5.57616
5.10336
4.53733
3.83002
2.989
2.0494
1.04891
0.245986
0.00398298
0.13741
1.15249
3.54985
5.43467
6.50006
7.0431
7.28199
7.33853
7.28169
7.14167
6.9366
6.67646
6.3658
6.00556
5.59584
5.12202
4.55499
3.84531
3.00004
2.05536
1.05013
0.245861
0.00400169
0.138059
1.15649
3.56013
5.44799
6.51507
7.05932
7.29892
7.35615
7.30015
7.16108
6.95674
6.69699
6.38608
6.02531
5.61475
5.14013
4.57222
3.86045
3.01086
2.06098
1.05085
0.2455
0.00401635
0.138571
1.1608
3.57337
5.46318
6.5302
7.07512
7.3155
7.37413
7.31914
7.18102
6.97711
6.71723
6.40595
6.04452
5.63301
5.15757
4.58893
3.87514
3.02138
2.06597
1.05124
0.245112
0.00399993
0.138329
1.16474
3.58291
5.47446
6.54447
7.09075
7.33254
7.39279
7.33876
7.20099
6.99711
6.7369
6.42494
6.06267
5.65035
5.17448
4.60528
3.88973
3.03191
2.07091
1.05159
0.244741
0.00398392
0.138202
1.16852
3.5913
5.48641
6.56046
7.10824
7.35114
7.41172
7.3579
7.22016
7.01607
6.75542
6.44287
6.08005
5.66711
5.19084
4.62108
3.9036
3.04174
2.07488
1.05072
0.243787
0.00400202
0.13867
1.17149
3.60059
5.50127
6.57566
7.12466
7.36827
7.4296
7.37614
7.23846
7.03403
6.77286
6.45966
6.0964
5.68319
5.20675
4.63635
3.91679
3.0509
2.07862
1.05004
0.242981
0.00401592
0.13899
1.17463
3.61138
5.51441
6.59067
7.141
7.38549
7.44657
7.39281
7.25458
7.04985
6.78848
6.47532
6.11224
5.69917
5.22275
4.65172
3.93045
3.06118
2.08379
1.05074
0.242977
0.00403726
0.139741
1.17885
3.62224
5.52853
6.60402
7.15443
7.39938
7.46022
7.40637
7.26824
7.06357
6.8023
6.48948
6.12671
5.71373
5.23692
4.66423
3.94032
3.06687
2.08359
1.04563
0.24063
0.00404827
0.14027
1.184
3.63347
5.53922
6.61492
7.16509
7.40955
7.47089
7.41679
7.27871
7.07452
6.81409
6.50202
6.13955
5.72673
5.24935
4.67489
3.94814
3.0708
2.08253
1.0408
0.238457
0.00531168
0.183336
1.51172
4.33165
6.3137
7.38033
7.88794
8.07435
8.07093
7.94164
7.7163
7.41161
7.03558
6.5906
6.07486
5.48478
4.81913
4.05823
3.19064
2.25325
1.31212
0.438958
0.0811572
0.00529527
0.183066
1.51358
4.33979
6.32052
7.38616
7.89187
8.07666
8.0711
7.93898
7.71007
7.4013
7.02094
6.57145
6.05139
5.4574
4.78841
4.02616
3.15967
2.22479
1.28826
0.427087
0.0804086
0.00530239
0.183579
1.51734
4.34441
6.32434
7.38824
7.89276
8.07495
8.06683
7.93182
7.69967
7.38715
7.00285
6.54929
6.02545
5.42821
4.75654
3.9934
3.12831
2.19595
1.26367
0.41497
0.0798958
0.00535275
0.184737
1.52029
4.34828
6.32912
7.3908
7.89356
8.07313
8.06246
7.92422
7.68864
7.37242
6.98392
6.52613
5.99849
5.39824
4.72416
3.96058
3.09667
2.16629
1.23826
0.403032
0.0795967
0.00533429
0.184337
1.52022
4.35137
6.33213
7.39179
7.89252
8.06993
8.05673
7.91547
7.67618
7.35579
6.96299
6.50124
5.97023
5.36745
4.69154
3.92761
3.06451
2.13583
1.21241
0.39143
0.0795074
0.00533947
0.184497
1.52246
4.35368
6.33453
7.39355
7.89213
8.06703
8.0504
7.90554
7.66213
7.33753
6.94074
6.47542
5.94132
5.33642
4.65887
3.89461
3.03212
2.10473
1.18602
0.38033
0.0796682
0.00538255
0.185704
1.52719
4.36148
6.33827
7.39353
7.89005
8.06218
8.04241
7.89382
7.6465
7.31793
6.91735
6.44861
5.91202
5.30529
4.62625
3.86138
2.99901
2.07236
1.15874
0.369272
0.0801178
0.00541787
0.186508
1.52889
4.36508
6.3414
7.39414
7.88775
8.05615
8.03283
7.88045
7.62928
7.29687
6.89276
6.42096
5.88203
5.27365
4.59339
3.82767
2.96493
2.03893
1.13089
0.35874
0.0808127
0.00542152
0.186761
1.53221
4.36582
6.33997
7.39108
7.88249
8.04802
8.02159
7.86558
7.6107
7.27468
6.86728
6.39278
5.85179
5.24191
4.56007
3.79305
2.92959
2.00407
1.10241
0.348627
0.0816589
0.00538338
0.186035
1.53205
4.36473
6.33719
7.38773
7.87641
8.03883
8.00903
7.8492
7.59063
7.25124
6.84074
6.3639
5.82105
5.20976
4.52612
3.75779
2.89301
1.96794
1.07356
0.339217
0.082694
0.00412098
0.142832
1.2059
3.69385
5.61266
6.69529
7.24906
7.49644
7.56091
7.5102
7.37486
7.17248
6.91271
6.59984
6.23489
5.81846
5.3344
4.7476
3.99903
3.0933
2.078
1.02002
0.229957
0.00416648
0.144379
1.21656
3.7105
5.62675
6.7093
7.2638
7.51167
7.57677
7.52663
7.39167
7.18939
6.92933
6.61602
6.25052
5.83334
5.34801
4.75864
4.00586
3.09563
2.07641
1.01641
0.228808
0.00418331
0.145294
1.22494
3.72061
5.64141
6.72342
7.27835
7.52733
7.59277
7.54291
7.40797
7.20573
6.94563
6.63194
6.26584
5.84788
5.36111
4.76904
4.01209
3.09724
2.07443
1.01263
0.227586
0.0042056
0.145903
1.2281
3.73038
5.6552
6.73891
7.29401
7.54285
7.60842
7.5588
7.42408
7.22189
6.96155
6.64753
6.28093
5.86207
5.37371
4.77869
4.01742
3.09818
2.07187
1.00862
0.226383
0.00421835
0.146335
1.23221
3.74159
5.66681
6.75263
7.30905
7.55825
7.62406
7.57474
7.44011
7.23788
6.97735
6.66291
6.29561
5.87585
5.38573
4.7875
4.02172
3.09805
2.06883
1.00434
0.225169
0.00423887
0.146894
1.23562
3.75187
5.67974
6.76669
7.32282
7.57254
7.6392
7.59053
7.45626
7.25389
6.99294
6.67797
6.31001
5.88917
5.39703
4.79535
4.02516
3.09732
2.06536
0.999922
0.223938
0.00425915
0.147423
1.23895
3.76501
5.69421
6.78105
7.33811
7.58817
7.65519
7.60636
7.47204
7.26951
7.00822
6.69275
6.32407
5.90195
5.40752
4.80225
4.02756
3.09595
2.06149
0.995263
0.222678
0.00427144
0.148176
1.24672
3.77449
5.70927
6.79634
7.35313
7.6031
7.67056
7.62207
7.48762
7.28472
7.02305
6.70704
6.33759
5.91407
5.41713
4.80813
4.02928
3.0941
2.05735
0.990449
0.221287
0.00429236
0.148911
1.25309
3.78433
5.72318
6.81122
7.3679
7.61848
7.68595
7.63742
7.50271
7.29961
7.03757
6.72113
6.3508
5.92564
5.42588
4.81311
4.03011
3.09174
2.0531
0.98573
0.219943
0.00434465
0.150401
1.25991
3.79745
5.73676
6.82575
7.38308
7.63385
7.70119
7.65245
7.51751
7.31424
7.05186
6.73485
6.36347
5.93635
5.4336
4.81693
4.03015
3.08891
2.04854
0.980734
0.218603
0.00439535
0.151886
1.26716
3.8117
5.75057
6.8397
7.39692
7.64748
7.71497
7.66629
7.53167
7.32842
7.06597
6.74826
6.37549
5.94597
5.44009
4.81983
4.02942
3.08561
2.04379
0.975966
0.217363
0.00437587
0.15137
1.26784
3.81859
5.75897
6.85043
7.4096
7.6608
7.72887
7.68043
7.54604
7.34272
7.07977
6.76109
6.38657
5.95456
5.44561
4.82193
4.02813
3.0818
2.03888
0.971009
0.216153
0.00436222
0.151334
1.27242
3.83081
5.77147
6.86421
7.42305
7.67415
7.74223
7.69435
7.55991
7.35651
7.09307
6.77311
6.39671
5.96212
5.45012
4.82312
4.02628
3.0777
2.03385
0.96614
0.214846
0.0043811
0.15182
1.27436
3.8397
5.78143
6.87653
7.43595
7.68783
7.75615
7.70844
7.57409
7.37027
7.10589
6.78443
6.4059
5.96857
5.4537
4.8237
4.02408
3.07349
2.02887
0.961285
0.213652
0.0044007
0.152324
1.27854
3.8532
5.79714
6.89008
7.44903
7.70057
7.7695
7.72196
7.58761
7.38331
7.11795
6.79477
6.41386
5.97391
5.45631
4.82338
4.02104
3.06877
2.02372
0.956443
0.21253
0.00441285
0.153074
1.28723
3.86448
5.80936
6.90218
7.46189
7.714
7.78346
7.73589
7.60109
7.39582
7.12906
6.80402
6.4209
5.97837
5.45814
4.82257
4.01765
3.06397
2.01855
0.95191
0.211487
0.00443841
0.153968
1.29247
3.87543
5.82069
6.91403
7.47487
7.72739
7.79669
7.74913
7.61396
7.40787
7.13953
6.81239
6.42694
5.98212
5.45947
4.82133
4.01426
3.05924
2.01399
0.94787
0.21074
0.0044518
0.154419
1.29568
3.88607
5.83465
6.9282
7.48843
7.74079
7.81053
7.76268
7.62657
7.41897
7.1488
6.81977
6.4321
5.98499
5.46011
4.81976
4.01043
3.05431
2.00937
0.943699
0.209865
0.00443618
0.154206
1.29937
3.89467
5.84457
6.94028
7.5023
7.75501
7.82431
7.77543
7.63792
7.42872
7.1567
6.82569
6.43601
5.98703
5.46019
4.8176
4.00628
3.04923
2.00505
0.939745
0.208958
0.0044537
0.154749
1.3033
3.9044
5.85786
6.95404
7.51561
7.76802
7.83641
7.78622
7.64731
7.43654
7.16302
6.83041
6.43904
5.98853
5.45999
4.81541
4.00205
3.04415
2.00072
0.935861
0.208089
0.00450758
0.156003
1.30707
3.91638
5.87301
6.96843
7.52798
7.77964
7.84689
7.79541
7.65496
7.44285
7.16808
6.83429
6.4416
5.98968
5.45927
4.81249
3.99731
3.03917
1.9965
0.931955
0.207283
0.00452823
0.156713
1.31167
3.92847
5.88597
6.98033
7.53835
7.78913
7.85528
7.80286
7.66165
7.44871
7.17287
6.83792
6.44392
5.99049
5.4584
4.80934
3.99247
3.03425
1.99237
0.928004
0.206408
0.0045382
0.157225
1.31687
3.93738
5.89625
6.99068
7.54822
7.798
7.86335
7.81002
7.66802
7.45416
7.17734
6.84134
6.44607
5.99107
5.45689
4.80558
3.98715
3.02913
1.98816
0.923814
0.20552
0.00456203
0.157872
1.32152
3.94762
5.90784
7.00026
7.5571
7.80576
7.87077
7.81692
7.67406
7.45925
7.18159
6.84457
6.44805
5.99125
5.45492
4.80122
3.98156
3.02393
1.98391
0.919428
0.204584
0.00457337
0.158258
1.3247
3.95326
5.91493
7.00974
7.56669
7.81487
7.87883
7.82398
7.68012
7.46433
7.18567
6.84757
6.44956
5.99086
5.45222
4.79649
3.97606
3.01896
1.97968
0.914885
0.203609
0.00455847
0.158056
1.32785
3.96071
5.92218
7.0187
7.57589
7.82312
7.88633
7.83075
7.68609
7.46947
7.18985
6.85052
6.45098
5.99013
5.44914
4.7916
3.9708
3.01395
1.97541
0.910279
0.202633
0.00457618
0.15878
1.3321
3.9712
5.93532
7.02999
7.58615
7.83254
7.89445
7.83759
7.69192
7.4745
7.19401
6.85348
6.4522
5.98907
5.44596
4.78698
3.96599
3.00986
1.97166
0.906184
0.201861
0.00462733
0.160282
1.33932
3.98203
5.9459
7.03884
7.5939
7.83897
7.90069
7.84374
7.69779
7.47965
7.19816
6.85621
6.45296
5.98756
5.44222
4.78198
3.96114
3.00599
1.96801
0.902146
0.201279
0.00463733
0.160789
1.34486
3.99039
5.95425
7.04728
7.60281
7.84725
7.90806
7.85016
7.70336
7.48435
7.2017
6.85813
6.45271
5.98482
5.43739
4.77617
3.95559
3.00088
1.96298
0.896739
0.199887
0.00465699
0.161477
1.35055
4.00336
5.96476
7.05667
7.61013
7.85435
7.9149
7.85652
7.70898
7.48881
7.20462
6.85924
6.45168
5.98143
5.43241
4.77078
3.95078
2.99656
1.95894
0.892652
0.19917
0.00466901
0.161713
1.35247
4.00831
5.9716
7.06554
7.61896
7.8625
7.92244
7.86291
7.71415
7.4928
7.20698
6.85971
6.45007
5.97768
5.42749
4.76583
3.94643
2.99231
1.95442
0.888152
0.198334
0.00469183
0.162496
1.35733
4.01736
5.98307
7.0755
7.62797
7.87017
7.9288
7.86846
7.71861
7.49588
7.20857
6.85952
6.44791
5.97376
5.42279
4.76107
3.94202
2.98768
1.94963
0.883611
0.197421
0.00473393
0.163714
1.36235
4.02589
5.99195
7.08365
7.6356
7.87685
7.93468
7.87333
7.72244
7.49841
7.2095
6.85862
6.44537
5.96987
5.41819
4.75648
3.93748
2.98291
1.94503
0.879312
0.196705
0.00471469
0.16337
1.36414
4.03377
5.99965
7.08846
7.64082
7.88205
7.93987
7.87793
7.72586
7.50045
7.20997
6.85744
6.44267
5.96586
5.41356
4.75181
3.93297
2.97798
1.93997
0.874755
0.195819
0.00466337
0.162244
1.36378
4.03812
6.00679
7.09629
7.64826
7.88856
7.94556
7.8826
7.72909
7.50191
7.20973
6.85572
6.43971
5.96166
5.40911
4.74765
3.92896
2.97318
1.93475
0.870127
0.194937
0.00470767
0.163618
1.37105
4.04936
6.01619
7.10587
7.65646
7.89539
7.95119
7.88654
7.73152
7.50284
7.20917
6.85386
6.43684
5.958
5.4056
4.74416
3.92501
2.96809
1.92902
0.865386
0.193962
0.00476063
0.165018
1.37648
4.05676
6.02384
7.11451
7.6635
7.90157
7.95591
7.88984
7.73318
7.50301
7.20816
6.85195
6.43427
5.95509
5.40272
4.74073
3.92039
2.96219
1.92324
0.860786
0.193022
0.00476633
0.16503
1.37667
4.05958
6.03079
7.12203
7.66967
7.90654
7.95949
7.89197
7.73409
7.50286
7.20713
6.85019
6.43198
5.95265
5.39958
4.73651
3.91471
2.95543
1.91734
0.856169
0.192022
0.00478731
0.165747
1.38118
4.07054
6.03809
7.12735
7.67499
7.91051
7.96252
7.89384
7.735
7.50289
7.20634
6.8488
6.43017
5.94998
5.39581
4.73161
3.90861
2.9483
1.91105
0.851305
0.190918
0.00479326
0.165946
1.38256
4.07628
6.04591
7.13426
7.68064
7.91475
7.96552
7.89602
7.7362
7.50305
7.20569
6.84748
6.42805
5.94663
5.39181
4.7268
3.90253
2.94083
1.9044
0.846136
0.189617
0.00480491
0.166343
1.3878
4.08228
6.05229
7.14003
7.68507
7.91868
7.96851
7.8978
7.737
7.50327
7.20519
6.84619
6.42595
5.94364
5.38856
4.72241
3.89625
2.93337
1.89782
0.841251
0.188346
0.0048165
0.166739
1.39084
4.08876
6.05942
7.14669
7.69055
7.923
7.97169
7.90023
7.73848
7.50385
7.205
6.84527
6.42419
5.94134
5.38548
4.71747
3.88907
2.92523
1.89115
0.836259
0.186934
0.00480197
0.166542
1.39313
4.09393
6.06568
7.15304
7.69562
7.92731
7.97487
7.90256
7.74016
7.50486
7.20524
6.8446
6.42274
5.93914
5.38173
4.71133
3.88081
2.91671
1.8846
0.831595
0.185486
0.0048513
0.16814
1.39906
4.10411
6.07324
7.15992
7.70127
7.93166
7.97833
7.90518
7.74213
7.50614
7.20573
6.84427
6.42155
5.93646
5.37709
4.70464
3.87241
2.90813
1.87809
0.826826
0.183954
0.00489553
0.169226
1.40367
4.11426
6.08078
7.16546
7.7065
7.9364
7.98262
7.90873
7.7449
7.50793
7.20647
6.84398
6.41996
5.93321
5.37228
4.69789
3.86394
2.89958
1.87173
0.822101
0.182297
0.00490864
0.169673
1.40828
4.12023
6.08609
7.17164
7.71249
7.94155
7.98709
7.9125
7.74764
7.50959
7.20705
6.84331
6.41793
5.92974
5.36721
4.69077
3.85517
2.89102
1.86539
0.817343
0.180552
0.00491609
0.169929
1.41017
4.12556
6.09279
7.17776
7.71811
7.94698
7.99144
7.91598
7.75013
7.51116
7.20761
6.84262
6.41586
5.92611
5.36192
4.68317
3.8459
2.88253
1.85953
0.812619
0.178711
0.00488933
0.169232
1.40976
4.1274
6.09721
7.18437
7.72428
7.95216
7.99573
7.91949
7.75271
7.51259
7.2078
6.84158
6.41355
5.92229
5.3561
4.67512
3.83669
2.87433
1.85382
0.808068
0.176952
0.00490102
0.169636
1.41198
4.13142
6.10388
7.19066
7.73023
7.9574
8.00022
7.92293
7.75531
7.51416
7.20815
6.84048
6.41095
5.91788
5.34972
4.66666
3.82733
2.86606
1.84809
0.803159
0.174898
0.00487967
0.169205
1.41247
4.1347
6.11125
7.19758
7.73678
7.96288