/*--------------------------------*- C++ -*----------------------------------*\
  =========                 |
  \\      /  F ield         | OpenFOAM: The Open Source CFD Toolbox
   \\    /   O peration     | Website:  https://openfoam.org
    \\  /    A nd           | Version:  10
     \\/     M anipulation  |
\*---------------------------------------------------------------------------*/
FoamFile
{
    format      ascii;
    class       volScalarField;
    location    "200";
    object      nut;
}
// * * * * * * * * * * * * * * * * * * * * * * * * * * * * * * * * * * * * * //

dimensions      [0 2 -1 0 0 0 0];

internalField   nonuniform List<scalar> 
96890
(
1.85358e-10
4.10355e-08
1.10844e-06
7.58441e-06
2.06587e-05
3.8903e-05
6.26118e-05
9.10587e-05
0.000123419
0.000160279
0.00020156
0.000247013
0.00029621
0.00034858
0.000403303
0.000459543
0.000512702
0.000544471
0.00055507
0.000554395
0.000546396
0.000479086
0.000162885
3.70076e-10
8.01154e-08
1.93306e-06
1.07166e-05
2.47848e-05
4.37711e-05
6.74068e-05
9.49192e-05
0.000124574
0.000156941
0.000191817
0.000228777
0.000267299
0.000306724
0.000346208
0.000384685
0.000423358
0.000485928
0.00066393
0.00107273
0.00132999
0.00126474
0.000649874
3.70466e-10
8.01114e-08
1.93166e-06
1.07154e-05
2.4784e-05
4.37843e-05
6.74487e-05
9.50776e-05
0.000125235
0.000158013
0.000193446
0.000231136
0.000270564
0.000311065
0.000351793
0.000391607
0.000432432
0.000500294
0.000689851
0.00110817
0.00136616
0.00126425
0.000765674
1.39581e-10
3.08091e-08
8.57169e-07
6.43425e-06
1.93727e-05
3.79565e-05
6.13685e-05
8.93203e-05
0.000121731
0.000158653
0.000199999
0.000245585
0.000295095
0.000347844
0.00040293
0.000459162
0.000515946
0.000561401
0.000578147
0.000572588
0.000549863
0.000475413
0.000198731
2.7613e-12
4.72757e-10
1.33161e-08
1.93445e-07
1.1591e-06
3.44984e-06
7.52035e-06
1.29718e-05
2.02498e-05
2.94341e-05
3.97457e-05
5.14142e-05
6.41654e-05
7.8581e-05
9.41476e-05
0.000110363
0.000126648
0.000142784
0.000158902
0.000175389
0.000191938
0.000208856
0.000227374
1.47574e-10
3.25988e-08
9.02593e-07
6.65136e-06
1.94871e-05
3.74099e-05
6.08275e-05
8.8854e-05
0.000121233
0.000158238
0.000199764
0.000245634
0.000295358
0.000348272
0.000403464
0.000459866
0.00050923
0.000545329
0.000563221
0.000564123
0.000552933
0.000493041
0.000184696
1.4578e-10
3.22134e-08
8.94444e-07
6.63092e-06
1.95775e-05
3.75887e-05
6.1061e-05
8.90722e-05
0.000121409
0.000158332
0.000199791
0.000245592
0.00029525
0.000348128
0.000403283
0.000459713
0.000516869
0.000555038
0.000572576
0.000572422
0.000558462
0.000495426
0.000207408
1.76338e-10
3.8816e-08
1.05045e-06
7.3327e-06
2.03342e-05
3.84715e-05
6.20764e-05
9.03408e-05
0.000122654
0.000159463
0.00020067
0.000246069
0.000295291
0.000347684
0.000402441
0.000458794
0.000511221
0.00054466
0.000557102
0.000556443
0.000547677
0.000479358
0.000181064
1.72139e-10
3.79097e-08
1.02919e-06
7.24017e-06
2.02231e-05
3.83143e-05
6.18689e-05
9.02369e-05
0.000122568
0.000159409
0.000200659
0.000246105
0.000295358
0.000347788
0.000402618
0.00045906
0.000510769
0.000544737
0.000557997
0.000557641
0.000549096
0.000482143
0.000180548
1.67924e-10
3.69857e-08
1.007e-06
7.13952e-06
2.00969e-05
3.81559e-05
6.16989e-05
9.0107e-05
0.000122493
0.000159399
0.000200736
0.000246264
0.000295594
0.000348124
0.000403029
0.000459515
0.000510147
0.00054458
0.000558623
0.000558402
0.000549475
0.000482682
0.000198564
1.63393e-10
3.60064e-08
9.83886e-07
7.03314e-06
1.99671e-05
3.79959e-05
6.15046e-05
8.99042e-05
0.000122349
0.000159334
0.000200767
0.000246404
0.000295859
0.000348493
0.00040348
0.000459986
0.000509482
0.000544192
0.000558989
0.000558808
0.000548813
0.000482244
0.000198539
1.58301e-10
3.49056e-08
9.58066e-07
6.91652e-06
1.98122e-05
3.78e-05
6.12794e-05
8.96584e-05
0.000122135
0.000159168
0.000200677
0.000246415
0.00029599
0.000348727
0.000403799
0.000460288
0.000509005
0.000544126
0.00056002
0.000560336
0.000550463
0.000487418
0.000182965
1.53503e-10
3.38675e-08
9.33113e-07
6.80191e-06
1.96869e-05
3.76765e-05
6.1176e-05
8.94761e-05
0.000121961
0.000159067
0.000200684
0.000246545
0.000296256
0.000349125
0.000404287
0.000460744
0.000509355
0.000545005
0.000561826
0.000562343
0.000551646
0.000489787
0.000204962
1.80807e-10
3.977e-08
1.07262e-06
7.42591e-06
2.0461e-05
3.86611e-05
6.23232e-05
9.07405e-05
0.000123125
0.000160029
0.000201356
0.000246866
0.000296152
0.000348597
0.00040341
0.000459767
0.000512112
0.0005451
0.00055694
0.000556263
0.000547605
0.000478524
0.000171089
1.53571e-10
3.52132e-08
9.7817e-07
6.88352e-06
2.03146e-05
3.99725e-05
6.4827e-05
9.42201e-05
0.000127752
0.000165535
0.000207637
0.000253614
0.000302862
0.000355009
0.000409197
0.00046434
0.000521159
0.00058004
0.000582346
0.000561606
0.000525057
0.000438547
0.000176077
1.84755e-10
4.06231e-08
1.09248e-06
7.51376e-06
2.05676e-05
3.87878e-05
6.24832e-05
9.10337e-05
0.000123444
0.000160388
0.000201724
0.000247236
0.000296526
0.000348979
0.000403782
0.000460123
0.000512558
0.000545078
0.000556449
0.000556022
0.000548426
0.000482055
0.000168772
2.13306e-10
4.71231e-08
1.25327e-06
8.24476e-06
2.16354e-05
4.02849e-05
6.44473e-05
9.34248e-05
0.000126236
0.000163528
0.000205198
0.000251002
0.000300411
0.000352605
0.000406608
0.000461693
0.00051313
0.000541824
0.000550908
0.000554114
0.000551093
0.000481136
0.000137348
1.89396e-10
4.19283e-08
1.12884e-06
7.66623e-06
2.07928e-05
3.91163e-05
6.29005e-05
9.14154e-05
0.00012388
0.000160853
0.000202249
0.000247817
0.000297131
0.000349605
0.00040435
0.000460477
0.000512989
0.000544183
0.000554158
0.000553125
0.000544747
0.000475891
0.000159047
1.96365e-10
4.31186e-08
1.15005e-06
7.75817e-06
2.09213e-05
3.93065e-05
6.31646e-05
9.17435e-05
0.000124265
0.000161301
0.000202738
0.000248356
0.00029774
0.000350258
0.000404977
0.000460947
0.000513249
0.000543977
0.000553695
0.000552944
0.000545807
0.000477403
0.00015572
1.99809e-10
4.38716e-08
1.1674e-06
7.83457e-06
2.10292e-05
3.94587e-05
6.33619e-05
9.20307e-05
0.000124598
0.000161704
0.000203217
0.0002489
0.000298366
0.000350928
0.000405604
0.000461457
0.000513341
0.000543714
0.000553259
0.000552912
0.000546955
0.000479165
0.000153118
2.03106e-10
4.45825e-08
1.18384e-06
7.90651e-06
2.11349e-05
3.96096e-05
6.35706e-05
9.2311e-05
0.000124952
0.000162118
0.000203678
0.000249437
0.000298963
0.000351527
0.000406143
0.00046191
0.000513343
0.000543301
0.000552605
0.000552514
0.000546859
0.000477841
0.000150829
2.03236e-10
4.49054e-08
1.19615e-06
7.97165e-06
2.12467e-05
3.9771e-05
6.38085e-05
9.26019e-05
0.000125308
0.000162522
0.000204159
0.000249973
0.00029953
0.000352101
0.000406675
0.000462335
0.00051348
0.000543228
0.000552434
0.000552864
0.000547608
0.00047752
0.000148641
2.06126e-10
4.55888e-08
1.21173e-06
8.0551e-06
2.13695e-05
3.99358e-05
6.40173e-05
9.28748e-05
0.000125624
0.000162886
0.000204589
0.000250452
0.000300052
0.000352609
0.000407129
0.000462658
0.000513744
0.000543472
0.000552936
0.000554654
0.000551365
0.00048523
0.000146937
2.12756e-10
4.66812e-08
1.23042e-06
8.13209e-06
2.14774e-05
4.0072e-05
6.41714e-05
9.31039e-05
0.000125896
0.000163225
0.000204971
0.000250876
0.000300486
0.000353016
0.000407449
0.000462865
0.000513776
0.000543449
0.000553279
0.000556077
0.000553951
0.000488078
0.000145931
2.15058e-10
4.71787e-08
1.24138e-06
8.17039e-06
2.1525e-05
4.01319e-05
6.42496e-05
9.33151e-05
0.000126161
0.000163536
0.00020532
0.000251273
0.000300869
0.000353331
0.000407654
0.000462986
0.000513646
0.000542946
0.000552601
0.000555608
0.000552847
0.000485565
0.000143144
2.14268e-10
4.71646e-08
1.24934e-06
8.20975e-06
2.15851e-05
4.02188e-05
6.43454e-05
9.34971e-05
0.000126387
0.000163771
0.000205542
0.000251475
0.000301026
0.000353397
0.00040758
0.000462825
0.000513319
0.000542308
0.000551646
0.000554685
0.000551567
0.000484286
0.000140694
2.57506e-10
5.66266e-08
1.4662e-06
9.14809e-06
2.30377e-05
4.23173e-05
6.71363e-05
9.69385e-05
0.00013047
0.000168575
0.00021121
0.000258117
0.000308894
0.000362839
0.000419014
0.000476424
0.000525213
0.00055484
0.000569099
0.000578329
0.000574616
0.00050027
0.000128531
2.62174e-10
5.74754e-08
1.47989e-06
9.19835e-06
2.31087e-05
4.24195e-05
6.72675e-05
9.71648e-05
0.000130791
0.000169027
0.000211802
0.000258873
0.000309829
0.000363935
0.00042013
0.000477329
0.000525899
0.000555652
0.000570139
0.000579508
0.000576065
0.000501894
0.000129231
2.16161e-10
4.77537e-08
1.2681e-06
8.32292e-06
2.17508e-05
4.04341e-05
6.46435e-05
9.37063e-05
0.000126583
0.000163967
0.000205718
0.000251562
0.000300985
0.000353155
0.000407103
0.000462116
0.000513306
0.000542037
0.000551435
0.000555484
0.000553607
0.00048378
0.000136527
2.22119e-10
4.8891e-08
1.28891e-06
8.38955e-06
2.18487e-05
4.05772e-05
6.48128e-05
9.39175e-05
0.000126808
0.000164227
0.000206009
0.000251853
0.000301223
0.000353324
0.000407197
0.000462159
0.000513394
0.000542076
0.000551624
0.00055613
0.000554199
0.000484107
0.000135667
2.28146e-10
4.99883e-08
1.30812e-06
8.44916e-06
2.19208e-05
4.06926e-05
6.50037e-05
9.41398e-05
0.000127075
0.000164521
0.000206327
0.000252163
0.000301512
0.000353561
0.00040741
0.000462401
0.000513802
0.000542496
0.000552272
0.000557319
0.000555719
0.000485987
0.000134782
2.26235e-10
4.99373e-08
1.31395e-06
8.4898e-06
2.19871e-05
4.0786e-05
6.51455e-05
9.43373e-05
0.000127302
0.000164775
0.000206581
0.000252413
0.000301738
0.000353796
0.000407658
0.00046272
0.000514242
0.000542963
0.000553027
0.000558673
0.000557693
0.000487791
0.000134122
2.27663e-10
5.03352e-08
1.32449e-06
8.53518e-06
2.20717e-05
4.09317e-05
6.53266e-05
9.45267e-05
0.000127528
0.000165034
0.000206843
0.000252664
0.00030197
0.000354024
0.000407944
0.000463121
0.000514531
0.000543219
0.000553477
0.000559445
0.000558406
0.000486798
0.00013348
2.32935e-10
5.11265e-08
1.33712e-06
8.57444e-06
2.21377e-05
4.10367e-05
6.54498e-05
9.4701e-05
0.000127742
0.000165242
0.000207072
0.000252907
0.000302211
0.000354288
0.000408264
0.000463547
0.000514885
0.000543608
0.000554105
0.000560433
0.000559271
0.000486261
0.00013303
2.35072e-10
5.16285e-08
1.34599e-06
8.61882e-06
2.22178e-05
4.11351e-05
6.55869e-05
9.48661e-05
0.000127921
0.000165423
0.000207259
0.000253119
0.00030247
0.000354602
0.000408639
0.000464014
0.000515511
0.000544318
0.000555122
0.000561982
0.000560977
0.00048837
0.000132613
2.41249e-10
5.27435e-08
1.36232e-06
8.68192e-06
2.23e-05
4.12299e-05
6.57008e-05
9.50213e-05
0.000128097
0.000165625
0.000207467
0.000253339
0.000302725
0.000354929
0.000409063
0.000464534
0.000516148
0.000545082
0.000556194
0.000563425
0.00056244
0.000490441
0.000132278
2.4632e-10
5.36807e-08
1.37624e-06
8.73543e-06
2.23817e-05
4.13365e-05
6.5837e-05
9.5169e-05
0.000128267
0.000165827
0.000207717
0.000253624
0.000303073
0.000355338
0.000409607
0.000465214
0.000516796
0.000545748
0.00055714
0.000564528
0.000563187
0.000490515
0.00013193
2.48302e-10
5.41042e-08
1.38557e-06
8.77465e-06
2.24543e-05
4.14435e-05
6.59755e-05
9.53377e-05
0.000128462
0.000166046
0.000207958
0.000253915
0.00030345
0.000355832
0.000410258
0.00046609
0.000517463
0.00054642
0.000558105
0.000565676
0.000564061
0.000490937
0.000131663
2.46296e-10
5.38456e-08
1.3883e-06
8.79437e-06
2.24975e-05
4.15229e-05
6.60626e-05
9.5455e-05
0.000128612
0.000166248
0.000208197
0.000254224
0.000303864
0.000356391
0.000411003
0.00046706
0.000517978
0.000547007
0.000558991
0.000566647
0.000564832
0.000491314
0.000131478
2.44205e-10
5.36081e-08
1.39418e-06
8.82799e-06
2.2534e-05
4.16025e-05
6.61818e-05
9.55676e-05
0.000128756
0.000166435
0.000208471
0.000254597
0.00030434
0.000357033
0.000411844
0.000468052
0.000518675
0.000547808
0.000560063
0.000567807
0.000565753
0.00049184
0.000131309
2.49897e-10
5.46525e-08
1.4091e-06
8.88196e-06
2.26036e-05
4.16729e-05
6.6289e-05
9.57287e-05
0.000128945
0.000166676
0.000208788
0.000255004
0.000304886
0.000357736
0.000412718
0.000469041
0.000519452
0.000548745
0.000561304
0.000569189
0.000567053
0.000493343
0.000131222
2.48686e-10
5.45085e-08
1.4098e-06
8.89813e-06
2.26361e-05
4.17396e-05
6.64144e-05
9.591e-05
0.00012917
0.000166945
0.000209152
0.000255468
0.000305488
0.000358488
0.000413636
0.000470149
0.00052024
0.000549582
0.000562456
0.000570496
0.00056817
0.000494379
0.000131114
2.47452e-10
5.4437e-08
1.41598e-06
8.92571e-06
2.27031e-05
4.18499e-05
6.65365e-05
9.6079e-05
0.000129414
0.000167257
0.00020952
0.000255943
0.000306093
0.000359248
0.000414574
0.000471352
0.000521024
0.000550518
0.000563666
0.000571842
0.000569338
0.000495983
0.000131065
2.53313e-10
5.56217e-08
1.43265e-06
8.97961e-06
2.27995e-05
4.19849e-05
6.66831e-05
9.62393e-05
0.000129631
0.00016756
0.000209895
0.000256429
0.000306711
0.000360032
0.000415555
0.000472477
0.000521651
0.0005513
0.000564828
0.000573213
0.000570617
0.000498054
0.000131154
2.58312e-10
5.65357e-08
1.4482e-06
9.03858e-06
2.28702e-05
4.20767e-05
6.68036e-05
9.64149e-05
0.000129864
0.000167866
0.000210281
0.000256895
0.000307308
0.000360799
0.000416479
0.000473402
0.000522283
0.000551984
0.000565666
0.000574124
0.000571326
0.000498631
0.000131018
2.63032e-10
5.72494e-08
1.45992e-06
9.08639e-06
2.29224e-05
4.21394e-05
6.69067e-05
9.65936e-05
0.000130093
0.000168157
0.000210675
0.000257403
0.00030792
0.000361553
0.000417327
0.000474305
0.000522946
0.000552721
0.000566566
0.000574998
0.00057193
0.000498255
0.00013104
2.61586e-10
5.71072e-08
1.46169e-06
9.11346e-06
2.29793e-05
4.22151e-05
6.70006e-05
9.67753e-05
0.000130329
0.000168454
0.000211063
0.000257907
0.000308539
0.000362279
0.000418174
0.000475386
0.000523747
0.000553568
0.000567743
0.000576635
0.000573914
0.000500343
0.000131686
2.62969e-10
5.74009e-08
1.46839e-06
9.1319e-06
2.30083e-05
4.22746e-05
6.70853e-05
9.69554e-05
0.000130568
0.000168741
0.000211417
0.000258348
0.000309077
0.000362906
0.000418979
0.000476468
0.000524488
0.000554275
0.00056861
0.000577873
0.000575094
0.000501911
0.000130944
2.60065e-10
5.69582e-08
1.46721e-06
9.13389e-06
2.30004e-05
4.22708e-05
6.70902e-05
9.70717e-05
0.000130689
0.000168891
0.000211595
0.000258555
0.000309357
0.000363291
0.000419486
0.000477028
0.000524962
0.00055472
0.000569079
0.000578515
0.000575561
0.000502576
0.000130349
3.25278e-10
7.14144e-08
1.78915e-06
1.04821e-05
2.53362e-05
4.59551e-05
7.25003e-05
0.000104421
0.000140516
0.000181753
0.000228084
0.000279385
0.000335251
0.000395059
0.000458173
0.000524541
0.000579214
0.000616638
0.000633377
0.000634528
0.000619095
0.000547646
0.000138542
3.2714e-10
7.16386e-08
1.79198e-06
1.05041e-05
2.53848e-05
4.60568e-05
7.26577e-05
0.00010466
0.000140848
0.000182192
0.000228659
0.000280106
0.000336128
0.000396106
0.000459377
0.000525907
0.000580418
0.000617714
0.000633975
0.000634538
0.000618859
0.000548366
0.000138121
3.28348e-10
7.15304e-08
1.78942e-06
1.05052e-05
2.54149e-05
4.61205e-05
7.2719e-05
0.000104794
0.000141041
0.000182452
0.000229006
0.000280537
0.000336661
0.000396765
0.000460167
0.000526879
0.000581498
0.000618501
0.000634197
0.000634132
0.000618017
0.000547693
0.000137407
3.29545e-10
7.17877e-08
1.79512e-06
1.05274e-05
2.54648e-05
4.62064e-05
7.28517e-05
0.000104962
0.000141283
0.000182774
0.000229426
0.00028106
0.000337286
0.000397512
0.000461064
0.000527933
0.000582435
0.000619166
0.00063432
0.000633597
0.000617062
0.000546926
0.000136639
3.26959e-10
7.16211e-08
1.79645e-06
1.05464e-05
2.55077e-05
4.62699e-05
7.29714e-05
0.000105148
0.00014153
0.000183093
0.00022982
0.000281543
0.000337892
0.000398232
0.000461917
0.000528887
0.000583361
0.00061971
0.000634282
0.000632988
0.000615995
0.000546429
0.000135863
2.64436e-10
5.79488e-08
1.48978e-06
9.22389e-06
2.31456e-05
4.24828e-05
6.73779e-05
9.73207e-05
0.000131029
0.00016934
0.000212191
0.000259377
0.000310453
0.000364622
0.000420795
0.000478054
0.000526682
0.000556514
0.000571245
0.000580895
0.000577591
0.00050383
0.000129663
2.66123e-10
5.82707e-08
1.49369e-06
9.24678e-06
2.31889e-05
4.25408e-05
6.7482e-05
9.75133e-05
0.000131277
0.000169665
0.000212616
0.000259919
0.000311102
0.000365358
0.000421635
0.000479114
0.000527475
0.000557449
0.000572461
0.000582426
0.00057954
0.000506577
0.000130212
2.66734e-10
5.84631e-08
1.50202e-06
9.29182e-06
2.32576e-05
4.26535e-05
6.76353e-05
9.77183e-05
0.000131544
0.000170004
0.000213062
0.000260471
0.000311757
0.000366126
0.000422531
0.000480047
0.000528192
0.000558376
0.00057377
0.000583965
0.000581319
0.000508651
0.000130786
2.68091e-10
5.87555e-08
1.51164e-06
9.32436e-06
2.33064e-05
4.27359e-05
6.7761e-05
9.79091e-05
0.000131806
0.000170353
0.00021352
0.000261041
0.000312432
0.000366885
0.000423305
0.000480661
0.000528914
0.000559368
0.00057502
0.000585438
0.000582983
0.000510112
0.000131432
2.6634e-10
5.85518e-08
1.51234e-06
9.34924e-06
2.33531e-05
4.28077e-05
6.78818e-05
9.80949e-05
0.000132056
0.000170694
0.000213942
0.000261569
0.00031306
0.00036757
0.000423949
0.000481172
0.000529562
0.000560355
0.000576377
0.00058696
0.000584574
0.000511682
0.000132055
2.68008e-10
5.8913e-08
1.51796e-06
9.37995e-06
2.34192e-05
4.28909e-05
6.79886e-05
9.82651e-05
0.00013229
0.000171028
0.000214368
0.000262083
0.000313662
0.000368194
0.000424549
0.00048181
0.000530306
0.000561412
0.000577748
0.000588557
0.000586411
0.000513879
0.000132761
2.6974e-10
5.94426e-08
1.52588e-06
9.40167e-06
2.34631e-05
4.29695e-05
6.81211e-05
9.84561e-05
0.000132536
0.000171348
0.000214797
0.000262582
0.000314234
0.000368803
0.000425155
0.000482481
0.000531058
0.000562536
0.00057924
0.000590188
0.000588123
0.000515131
0.000133414
2.74899e-10
6.01963e-08
1.53728e-06
9.43812e-06
2.351e-05
4.305e-05
6.82247e-05
9.86449e-05
0.000132812
0.000171678
0.000215206
0.0002631
0.00031481
0.000369407
0.000425755
0.000483068
0.000531894
0.000563816
0.000580854
0.000591908
0.000590018
0.000516439
0.00013407
2.80185e-10
6.09554e-08
1.55053e-06
9.48236e-06
2.35796e-05
4.31668e-05
6.84e-05
9.8847e-05
0.000133072
0.000172028
0.000215648
0.000263607
0.000315362
0.000369969
0.000426283
0.000483582
0.000532754
0.000565152
0.000582476
0.000593621
0.000591731
0.000517533
0.000134669
2.77746e-10
6.06735e-08
1.54883e-06
9.4971e-06
2.36097e-05
4.32285e-05
6.85152e-05
9.90307e-05
0.000133333
0.000172367
0.000216041
0.000264088
0.000315881
0.000370477
0.000426783
0.000484128
0.00053374
0.000566567
0.000584128
0.000595283
0.000593276
0.000517905
0.000135319
2.76199e-10
6.06036e-08
1.55504e-06
9.52849e-06
2.36745e-05
4.33393e-05
6.86851e-05
9.92123e-05
0.000133567
0.000172684
0.000216426
0.000264508
0.00031633
0.000370933
0.000427236
0.000484726
0.000534904
0.000568172
0.000585965
0.000597196
0.00059544
0.000520058
0.000135906
2.76932e-10
6.10014e-08
1.56356e-06
9.54512e-06
2.37207e-05
4.34186e-05
6.87864e-05
9.93981e-05
0.000133835
0.000172994
0.000216775
0.000264908
0.000316761
0.000371365
0.000427684
0.000485334
0.000535881
0.000569569
0.000587537
0.000598756
0.000596914
0.000521755
0.000136589
2.78007e-10
6.12365e-08
1.5716e-06
9.58506e-06
2.37645e-05
4.34779e-05
6.88931e-05
9.95787e-05
0.000134058
0.000173278
0.000217121
0.000265277
0.000317135
0.00037175
0.000428139
0.000485971
0.000537035
0.000571093
0.000589156
0.000600322
0.000598426
0.000523789
0.00013731
2.76224e-10
6.11745e-08
1.58032e-06
9.62921e-06
2.38304e-05
4.35723e-05
6.90303e-05
9.97385e-05
0.000134268
0.00017354
0.00021743
0.00026563
0.000317505
0.000372143
0.000428618
0.000486719
0.000538397
0.000572758
0.000590884
0.000602032
0.000600262
0.000527866
0.000138064
2.77819e-10
6.15207e-08
1.58813e-06
9.66237e-06
2.38895e-05
4.36661e-05
6.91659e-05
9.99029e-05
0.000134485
0.00017381
0.000217745
0.000265986
0.000317884
0.000372554
0.000429147
0.000487573
0.00053966
0.000574309
0.000592519
0.000603473
0.000601735
0.000529651
0.000138835
2.83237e-10
6.23637e-08
1.59722e-06
9.69049e-06
2.39589e-05
4.37919e-05
6.93257e-05
0.000100059
0.000134683
0.000174064
0.000218051
0.00026631
0.000318251
0.000373001
0.00042977
0.000488552
0.000541144
0.000575966
0.000594168
0.000605053
0.000603571
0.000531424
0.000139547
2.88267e-10
6.31185e-08
1.60375e-06
9.71098e-06
2.40055e-05
4.38764e-05
6.94652e-05
0.000100245
0.000134896
0.000174308
0.000218347
0.000266657
0.000318645
0.000373474
0.000430435
0.000489565
0.000542618
0.000577732
0.000596103
0.000607063
0.000605927
0.000534362
0.00014028
2.89855e-10
6.34332e-08
1.61197e-06
9.74889e-06
2.40644e-05
4.39518e-05
6.95538e-05
0.000100379
0.00013507
0.000174534
0.000218604
0.000266952
0.000319006
0.000373982
0.000431191
0.000490701
0.000544186
0.000579408
0.000597833
0.000608812
0.000607475
0.000537397
0.000141089
2.91954e-10
6.38192e-08
1.62141e-06
9.78683e-06
2.41329e-05
4.40616e-05
6.96933e-05
0.000100526
0.00013525
0.000174748
0.00021888
0.000267298
0.000319435
0.000374547
0.000432026
0.000491962
0.000545521
0.000580847
0.000599323
0.000610201
0.000608742
0.000540155
0.000141825
2.92683e-10
6.40413e-08
1.62547e-06
9.80511e-06
2.41449e-05
4.40822e-05
6.97745e-05
0.000100669
0.000135434
0.000174978
0.000219144
0.000267623
0.000319896
0.000375187
0.000432967
0.000493358
0.000546969
0.000582422
0.000601029
0.000611873
0.000610325
0.000542159
0.000142598
2.90727e-10
6.38932e-08
1.63007e-06
9.82625e-06
2.41926e-05
4.41516e-05
6.98523e-05
0.000100797
0.000135603
0.000175198
0.000219432
0.000268006
0.000320395
0.000375899
0.000433998
0.000494801
0.000548455
0.000584015
0.000602749
0.000613588
0.00061183
0.000543223
0.0001433
2.8825e-10
6.37855e-08
1.6327e-06
9.84083e-06
2.42471e-05
4.42561e-05
6.99961e-05
0.000100963
0.000135813
0.000175443
0.000219752
0.000268435
0.000320959
0.00037668
0.000435092
0.000496249
0.00054997
0.000585656
0.000604509
0.000615274
0.000613133
0.0005446
0.000143888
2.97197e-10
6.49998e-08
1.64932e-06
9.90758e-06
2.43187e-05
4.43369e-05
7.01273e-05
0.000101143
0.000136049
0.000175733
0.000220123
0.000268906
0.000321566
0.00037749
0.000436183
0.000497663
0.000551414
0.000587287
0.000606276
0.000616931
0.000614432
0.000546013
0.000144414
3.03276e-10
6.58783e-08
1.66362e-06
9.96389e-06
2.43906e-05
4.44398e-05
7.02581e-05
0.000101299
0.000136256
0.000176013
0.000220473
0.000269341
0.000322168
0.000378314
0.000437277
0.00049909
0.000552995
0.000588991
0.000608097
0.000618649
0.000615882
0.000547055
0.000144905
3.04615e-10
6.61623e-08
1.66986e-06
9.99004e-06
2.44368e-05
4.45165e-05
7.03828e-05
0.000101456
0.000136462
0.000176298
0.000220832
0.000269803
0.000322782
0.000379145
0.00043839
0.000500553
0.000554527
0.000590763
0.000609986
0.00062031
0.000617231
0.000548167
0.000145391
3.09913e-10
6.69418e-08
1.67966e-06
1.00242e-05
2.45032e-05
4.46093e-05
7.04829e-05
0.000101617
0.000136668
0.000176573
0.000221186
0.000270268
0.000323374
0.000379953
0.000439518
0.000502033
0.000556056
0.000592358
0.000611715
0.000621827
0.000618337
0.000549166
0.000145756
3.06735e-10
6.66384e-08
1.67874e-06
1.00209e-05
2.45248e-05
4.46757e-05
7.05635e-05
0.000101731
0.000136846
0.000176816
0.000221521
0.000270724
0.000323997
0.000380803
0.000440654
0.000503496
0.000557527
0.000593987
0.000613325
0.000623107
0.000618965
0.00054936
0.000146159
3.03779e-10
6.64429e-08
1.67946e-06
1.00374e-05
2.45666e-05
4.47302e-05
7.06629e-05
0.000101854
0.00013703
0.000177069
0.000221842
0.000271146
0.000324594
0.000381642
0.000441793
0.000504942
0.000559058
0.000595676
0.000615101
0.000624558
0.000619877
0.000550185
0.000146412
3.01212e-10
6.60704e-08
1.67661e-06
1.00511e-05
2.45927e-05
4.4762e-05
7.07289e-05
0.000101996
0.000137207
0.000177304
0.000222168
0.000271614
0.000325257
0.000382552
0.00044299
0.000506436
0.000560706
0.000597408
0.000616793
0.000625948
0.000620734
0.000550882
0.000146613
2.99003e-10
6.59307e-08
1.68216e-06
1.00691e-05
2.46418e-05
4.48589e-05
7.0856e-05
0.000102138
0.000137401
0.000177576
0.000222542
0.000272106
0.000325929
0.00038348
0.000444213
0.00050795
0.000562174
0.000599029
0.000618449
0.000627229
0.000621418
0.00055141
0.000146769
3.04088e-10
6.66835e-08
1.69292e-06
1.01024e-05
2.46842e-05
4.49381e-05
7.09836e-05
0.000102317
0.000137643
0.000177867
0.000222918
0.000272639
0.000326672
0.000384492
0.00044552
0.000509507
0.00056373
0.000600676
0.000620173
0.000628551
0.000622145
0.000552263
0.000146797
3.09396e-10
6.74515e-08
1.70611e-06
1.01535e-05
2.47388e-05
4.50269e-05
7.11287e-05
0.000102462
0.000137847
0.000178172
0.00022334
0.00027324
0.000327498
0.000385559
0.000446842
0.00051105
0.000565187
0.000602296
0.000621854
0.000629735
0.000622728
0.00055296
0.000146775
3.10906e-10
6.81356e-08
1.71824e-06
1.018e-05
2.48037e-05
4.51271e-05
7.12712e-05
0.000102679
0.000138106
0.000178514
0.000223806
0.000273864
0.000328334
0.000386652
0.000448179
0.000512585
0.000566576
0.000603872
0.000623424
0.000630793
0.000623242
0.000553765
0.000146675
3.16723e-10
6.90104e-08
1.7287e-06
1.02173e-05
2.48787e-05
4.52314e-05
7.13978e-05
0.000102885
0.000138373
0.000178868
0.0002243
0.000274547
0.000329217
0.000387771
0.000449516
0.000514087
0.000567833
0.000605297
0.000624817
0.000631554
0.000623254
0.000553977
0.000146585
3.22648e-10
6.98368e-08
1.73859e-06
1.02536e-05
2.49341e-05
4.53185e-05
7.15252e-05
0.000103051
0.000138617
0.000179217
0.000224803
0.000275227
0.000330112
0.000388881
0.000450814
0.000515562
0.000569057
0.000606737
0.000626194
0.000632328
0.000623453
0.000554406
0.000146448
3.24156e-10
7.01639e-08
1.74287e-06
1.02773e-05
2.49868e-05
4.53941e-05
7.16376e-05
0.000103245
0.000138893
0.000179598
0.000225322
0.000275913
0.000331012
0.000389991
0.000452123
0.000517064
0.000570371
0.000608281
0.000627608
0.00063313
0.00062362
0.00055448
0.000146153
3.25335e-10
7.04183e-08
1.74855e-06
1.03126e-05
2.50457e-05
4.54729e-05
7.17566e-05
0.000103419
0.000139166
0.000179976
0.000225854
0.000276607
0.000331886
0.000391044
0.000453346
0.000518407
0.000571576
0.000609758
0.00062905
0.000634035
0.000623866
0.000554913
0.000145845
3.22284e-10
7.01443e-08
1.75408e-06
1.0334e-05
2.50763e-05
4.55516e-05
7.19081e-05
0.000103591
0.000139444
0.000180389
0.000226396
0.000277307
0.000332731
0.000392071
0.000454546
0.000519505
0.000572858
0.000611177
0.000630338
0.00063489
0.000624137
0.000555956
0.000145517
3.19207e-10
6.99321e-08
1.75795e-06
1.03461e-05
2.51067e-05
4.56237e-05
7.20276e-05
0.000103809
0.000139749
0.000180796
0.000226915
0.000277962
0.000333535
0.000392994
0.000455613
0.000520447
0.000574012
0.000612478
0.000631357
0.000635228
0.000623412
0.000554226
0.00014486
3.20659e-10
7.00653e-08
1.76155e-06
1.0365e-05
2.51539e-05
4.57208e-05
7.21659e-05
0.000103996
0.000140002
0.000181138
0.000227385
0.000278552
0.000334259
0.000393867
0.000456629
0.000521544
0.000575313
0.000613778
0.0006324
0.000635852
0.000623479
0.00055412
0.000144288
3.21775e-10
7.01178e-08
1.76516e-06
1.03908e-05
2.5203e-05
4.57887e-05
7.22708e-05
0.000104207
0.000140288
0.000181521
0.000227852
0.000279109
0.000334921
0.000394624
0.000457524
0.000522524
0.000576526
0.000615008
0.000633495
0.000636793
0.000624487
0.000556354
0.000144157
3.23486e-10
7.05047e-08
1.7697e-06
1.04178e-05
2.5271e-05
4.58819e-05
7.23524e-05
0.000104407
0.000140549
0.000181833
0.00022824
0.000279585
0.000335465
0.000395254
0.000458302
0.000523419
0.000577518
0.000615696
0.000633651
0.000636198
0.000622676
0.000552789
0.000142642
3.24371e-10
7.08539e-08
1.7773e-06
1.04499e-05
2.53042e-05
4.5914e-05
7.2411e-05
0.000104471
0.000140715
0.000182043
0.000228457
0.000279805
0.000335713
0.000395565
0.000458719
0.000524199
0.000578362
0.000616181
0.000633542
0.000635447
0.00062088
0.000549636
0.000141228
4.27469e-10
9.22817e-08
2.21508e-06
1.20396e-05
2.79089e-05
4.97848e-05
7.75356e-05
0.000109736
0.000145987
0.000186502
0.000230747
0.000277888
0.000326648
0.000375295
0.000421825
0.000464653
0.000503937
0.000527952
0.000519951
0.000506137
0.000480337
0.00025043
4.22768e-05
4.24629e-10
9.20465e-08
2.21543e-06
1.20592e-05
2.79403e-05
4.98207e-05
7.75699e-05
0.000109755
0.000145989
0.000186464
0.000230607
0.00027756
0.000326024
0.000374279
0.000420361
0.000462714
0.000501347
0.00052534
0.00051696
0.000502207
0.000475507
0.000243579
4.14586e-05
4.25087e-10
9.23771e-08
2.22077e-06
1.20704e-05
2.79572e-05
4.98293e-05
7.75695e-05
0.000109694
0.000145844
0.000186191
0.00023017
0.000276866
0.000324989
0.000372809
0.000418401
0.000460205
0.000498158
0.00052255
0.000513758
0.000497874
0.000470094
0.000236619
4.16435e-05
4.31376e-10
9.31466e-08
2.22602e-06
1.20785e-05
2.79687e-05
4.98324e-05
7.75519e-05
0.000109636
0.000145734
0.000185962
0.000229758
0.000276197
0.000323986
0.000371393
0.000416491
0.000457725
0.000494971
0.000519739
0.000510317
0.000492909
0.000463106
0.000229808
4.22055e-05
4.28277e-10
9.27197e-08
2.22282e-06
1.20774e-05
2.79748e-05
4.98474e-05
7.7565e-05
0.00010957
0.000145587
0.000185709
0.00022931
0.000275486
0.000322921
0.000369895
0.000414502
0.0004552
0.000491808
0.000517199
0.000507204
0.000488596
0.000457524
0.000223143
4.15945e-05
4.28703e-10
9.27964e-08
2.2274e-06
1.20824e-05
2.79705e-05
4.98401e-05
7.75363e-05
0.000109508
0.000145441
0.00018542
0.000228822
0.00027472
0.000321797
0.000368361
0.000412516
0.000452723
0.000488728
0.000514641
0.00050395
0.000484093
0.000452488
0.000216668
3.9726e-05
4.33658e-10
9.35191e-08
2.23472e-06
1.21103e-05
2.80127e-05
4.98675e-05
7.753e-05
0.000109426
0.000145249
0.000185071
0.000228262
0.000273884
0.000320627
0.000366797
0.000410511
0.000450249
0.000485678
0.000511769
0.000500135
0.000478594
0.000445609
0.000210244
3.9581e-05
4.38106e-10
9.40477e-08
2.23726e-06
1.21177e-05
2.8013e-05
4.98539e-05
7.74953e-05
0.000109311
0.000145022
0.000184685
0.000227663
0.00027301
0.000319422
0.000365209
0.000408507
0.000447801
0.000482723
0.000508821
0.000496117
0.000472877
0.000439058
0.000204305
4.28977e-05
4.38388e-10
9.42516e-08
2.24337e-06
1.21182e-05
2.80017e-05
4.98211e-05
7.74215e-05
0.000109142
0.000144751
0.000184248
0.000227014
0.000272091
0.000318181
0.000363595
0.000406496
0.000445396
0.000479861
0.000505522
0.000491586
0.000466576
0.000432028
0.000198679
4.52154e-05
4.33136e-10
9.38048e-08
2.24178e-06
1.21068e-05
2.79677e-05
4.97706e-05
7.73495e-05
0.00010896
0.000144461
0.000183805
0.00022635
0.000271176
0.000316947
0.000361997
0.000404525
0.000443016
0.000476763
0.000502075
0.000486745
0.000459834
0.000424055
0.000193312
4.38934e-05
3.28566e-10
7.17876e-08
1.8015e-06
1.05796e-05