/*--------------------------------*- C++ -*----------------------------------*\
  =========                 |
  \\      /  F ield         | OpenFOAM: The Open Source CFD Toolbox
   \\    /   O peration     | Website:  https://openfoam.org
    \\  /    A nd           | Version:  10
     \\/     M anipulation  |
\*---------------------------------------------------------------------------*/
FoamFile
{
    format      ascii;
    class       volScalarField;
    location    "200";
    object      omega;
}
// * * * * * * * * * * * * * * * * * * * * * * * * * * * * * * * * * * * * * //

dimensions      [0 0 -1 0 0 0 0];

internalField   nonuniform List<scalar> 
96890
(
1.25079e+07
1.96053e+06
632958
321762
197064
130624
91298.9
66505.3
50037.3
38565.3
30274.9
24110.9
19416.9
15761.1
12853.9
10491
8500.86
6700.9
5060.13
3527.86
2224.35
1630.6
1614.3
1.24752e+07
1.98629e+06
682375
360781
221744
146265
101586
73557.6
54972.6
42075.6
32812.9
25983
20833.2
16868.1
13748.5
11231.5
9095.65
6957.18
4532.74
2577.48
1927.07
1868.2
2167.53
1.24518e+07
1.98383e+06
681736
360578
221731
146275
101572
73521.1
54940.1
42043.2
32782.1
25952.7
20803.5
16840.2
13723.6
11209.9
9068.68
6905.17
4475.78
2565.05
1931.3
1925.34
2560.53
1.2437e+07
1.94979e+06
614493
301228
181013
119782
84485
62364.1
47565
37134.2
29499
23745.7
19307.1
15810.8
13012.2
10719.6
8791.84
7096.89
5536.36
4160.06
2865.31
1782.66
1592.66
1.248e+07
2.19481e+06
617011
237620
137296
100328
81826.8
70475.3
61285.3
53794
47872.7
42843.4
38521.7
34828.4
31559.1
28615.5
25988.4
23617.3
21468.1
19512.3
17713.7
16140.9
14578.5
1.24434e+07
1.95033e+06
618006
308019
188114
125221
88103.4
64622.5
48926.6
37932.5
29948.1
23977.5
19404.9
15828.2
12976.1
10659.3
8719.71
7000.45
5415.19
4032.35
2755.66
1746.71
1591.24
1.24433e+07
1.94935e+06
615994
305588
186113
123878
87256.5
64109.6
48629.1
37760.2
29848.5
23922.4
19375.5
15814.8
12974.2
10667
8741.8
7043.71
5471.14
4100.59
2835.14
1787.55
1592.84
1.24381e+07
1.95526e+06
628733
317972
194614
129166
90438.8
65996.4
49726.7
38379.8
30175.1
24064.7
19401
15766.8
12876.3
10525.6
8545.9
6758.24
5129.17
3632.77
2329.74
1641.54
1605.65
1.24379e+07
1.95445e+06
627197
316511
193556
128518
90003.9
65710.7
49541.4
38262.2
30101.3
24019.8
19377.1
15757.3
12875.7
10531.7
8559.35
6786.78
5159.91
3688.89
2396.08
1657.16
1603.04
1.24316e+07
1.95306e+06
625538
315058
192613
127937
89623.5
65466.6
49382.8
38157.5
30033.7
23979.1
19355.7
15747.9
12875.8
10539.9
8575.91
6819.32
5198.07
3756.99
2478.49
1674.65
1598.99
1.24315e+07
1.95213e+06
623787
313526
191625
127346
89296.1
65263.4
49253.2
38077
29986
23953.7
19344.4
15747.1
12882.7
10554.4
8599.47
6857.37
5244.54
3830
2564.31
1696
1595.57
1.24375e+07
1.95213e+06
622057
311843
190626
126744
88955.3
65062.9
49134.5
38012.5
29955
23943.6
19347.2
15758.7
12900.3
10577.9
8630.44
6900.65
5296.75
3901.69
2643.41
1721.79
1594.99
1.24374e+07
1.95109e+06
620145
310011
189381
125941
88475.1
64791.5
48989.7
37934.2
29915.2
23928.6
19347.6
15768.7
12917.4
10602
8663.84
6950.13
5357.07
3984.49
2741.63
1757.4
1593.24
1.24321e+07
1.95544e+06
630046
319307
195465
129618
90673.1
66115.7
49780.4
38394.7
30164.8
24041
19373.4
15738.7
12847.9
10498.2
8520.12
6737.13
5107.96
3622.74
2333.51
1642.59
1608.21
1.27035e+07
1.95006e+06
617162
301524
177108
114239
79195.9
58036.2
44288.2
34772.2
27791.7
22489.5
18375.5
15113.7
12484.2
10330.1
8541.92
6947.92
5445.61
4109.97
2853.79
1803.85
1600.71
1.24261e+07
1.95521e+06
631117
320383
196163
130021
90889.7
66237
49846.9
38427.2
30179.4
24045.3
19370.7
15730.7
12836.2
10483.2
8502.52
6719.25
5084.12
3591.32
2304.4
1643.35
1609.01
1.25783e+07
1.97629e+06
644350
330232
202225
133745
93183
67672.9
50743.4
38983.1
30509.8
24223.2
19451.4
15754.3
12828.2
10452.9
8445.38
6617.3
4972.36
3407.84
2121.08
1627.18
1627.47
1.25049e+07
1.96104e+06
634146
322939
197688
130956
91489.3
66620.6
50093
38587.1
30277.5
24101.5
19400.2
15740.2
12832.8
10472.2
8486.41
6692.09
5059.4
3538.82
2235.61
1630.27
1613.34
1.24204e+07
1.95661e+06
634751
323774
198260
131260
91653
66726.3
50154.6
38621
30295.6
24108.3
19397.3
15731.5
12822
10462.1
8476.42
6681.17
5051.84
3531.7
2226.13
1629.51
1612.61
1.24206e+07
1.95695e+06
635821
324696
198840
131602
91866.8
66843.9
50229.5
38664.4
30317.4
24116.8
19395
15723.5
12812.4
10452.2
8465.36
6669.76
5045.1
3526.79
2220.84
1629.37
1613.6
1.24207e+07
1.95751e+06
636854
325582
199364
131924
92061.5
66951.9
50292.1
38700.9
30338
24122.8
19391.9
15716.9
12804.5
10443.5
8455.51
6658.67
5037.67
3521.75
2217.21
1629.43
1613.25
1.25014e+07
1.96286e+06
638916
326486
199839
132223
92227.6
67062.1
50358.1
38739.1
30354.9
24127
19389.6
15710.3
12796.5
10435.1
8447.4
6647.53
5028.96
3518.78
2218.61
1629.51
1614.51
1.25046e+07
1.96311e+06
639695
326936
200235
132484
92405.2
67183.2
50432.2
38781.3
30374.3
24133.7
19387.8
15705.6
12790.5
10429.5
8441.96
6637.11
5018.96
3515.14
2223.44
1629.9
1616.59
1.24213e+07
1.95864e+06
639927
327494
200660
132779
92607.5
67304.8
50505
38816.1
30390.1
24138.3
19387.1
15703.2
12788.1
10427.1
8437.97
6628.78
5009.68
3507.72
2225.76
1630.94
1618.85
1.24215e+07
1.95901e+06
640793
328470
201267
133148
92788.5
67393.9
50546.7
38835.7
30397.5
24136.4
19383.9
15701.2
12787.1
10425.2
8433.85
6623.55
5000.69
3494.52
2218.62
1632.49
1619.72
1.25011e+07
1.9677e+06
642204
329326
201633
133334
92892.8
67452.3
50574.1
38853.5
30410.4
24145.7
19391.3
15707.7
12793.1
10428
8432.56
6621.68
4989.3
3470.59
2195.92
1634.94
1620.89
1.2548e+07
1.97897e+06
655027
338903
207598
137083
95384.6
69162.8
51790.8
39730.6
31042
24608.2
19728.9
15951.7
12968.2
10559.3
8533.67
6687.02
4990.86
3355.77
2072.29
1642.28
1650.84
1.24857e+07
1.9727e+06
654360
338935
207715
137171
95459.9
69202
51812
39738.5
31045.3
24608.8
19728.5
15952.1
12972.9
10570.7
8547.51
6692.83
4991.22
3370.19
2086.19
1643.46
1651.18
1.2578e+07
1.97642e+06
644987
330540
202487
133939
93304.7
67742.6
50783.5
39000
30514.4
24224.7
19451
15753.3
12826.8
10451.8
8445.83
6620.72
4980.52
3423.37
2133.21
1627.76
1627.38
1.24981e+07
1.96843e+06
644254
330900
202750
134101
93413.7
67812.6
50835.7
39033.7
30535.3
24239.1
19463.3
15763.4
12835
10457.8
8449.15
6621.37
4978.77
3420.53
2129.08
1628.08
1628
1.24162e+07
1.96042e+06
643545
331294
203095
134284
93499.9
67867.7
50870.7
39059.1
30552.9
24252.8
19473.6
15771.9
12840.9
10461
8449.77
6620.25
4977.13
3418.84
2127.62
1628.45
1628.78
1.25133e+07
1.96734e+06
645442
331950
203478
134506
93621.1
67936.3
50918.4
39092.9
30579.4
24272.7
19488.5
15781.3
12846.9
10464.3
8450.29
6619.26
4975.36
3413.01
2124.45
1628.72
1629.37
1.25353e+07
1.96973e+06
646286
332579
203766
134638
93729.3
68011.2
50968.6
39125.9
30604.1
24291.5
19503.2
15792.4
12853.7
10467.7
8451.39
6619.47
4974.41
3405.63
2119.85
1628.87
1629.73
1.24699e+07
1.96695e+06
646430
333117
204084
134826
93860.3
68094.4
51019.5
39166.3
30631.4
24309.9
19517.3
15802.6
12860.8
10472.2
8454.69
6622.77
4976.39
3401.69
2115.69
1629.03
1630.49
1.24733e+07
1.96745e+06
647640
333659
204326
135012
93963
68163.5
51071.3
39207.5
30662.5
24331.5
19531.1
15811.7
12867.7
10477.5
8459.9
6629.75
4983.89
3404.99
2113.38
1629.3
1631.77
1.23926e+07
1.95958e+06
647501
333797
204510
135174
94078.7
68239.3
51123.4
39242.6
30689.9
24353
19547.3
15822.9
12875.7
10484
8466.55
6638.56
4994.09
3412.02
2112.55
1629.69
1632.74
1.23319e+07
1.95353e+06
647489
334010
204665
135293
94163.2
68305.9
51174.1
39278.6
30713.4
24370.4
19559.5
15832.7
12882.1
10489
8471.02
6643.49
4998.74
3414.42
2111.52
1630.13
1632.99
1.23321e+07
1.95382e+06
648020
334433
204859
135423
94246.2
68359.9
51213.9
39309.7
30738.9
24389.8
19572.6
15841.5
12887.7
10491.6
8472.16
6644.76
4998.47
3411.38
2109.66
1630.57
1633.66
1.24082e+07
1.96193e+06
649169
335076
205190
135601
94378.2
68451.8
51275.1
39348.6
30768.4
24410.6
19586.5
15850.2
12892.6
10494.1
8474.3
6649.26
5002.4
3410.97
2108.81
1631.1
1634.04
1.2488e+07
1.9704e+06
649781
335513
205529
135739
94486
68537.3
51334.8
39391.2
30794.6
24427.1
19598.3
15856.7
12895.5
10496.5
8479.4
6657.53
5010.31
3415.73
2109.74
1631.69
1635.05
1.24115e+07
1.96294e+06
649648
335615
205708
135905
94572.5
68593.3
51380.3
39424.4
30817.3
24443.2
19608
15862.1
12898.5
10499.8
8483.47
6661.73
5013.25
3421.57
2111.98
1632.32
1635.74
1.24696e+07
1.96904e+06
651146
336346
206076
136110
94665.7
68642.6
51419.1
39456.8
30837.8
24456.9
19615.8
15866.6
12901
10501.4
8482.76
6659.57
5012.22
3426.93
2115.18
1633.15
1636.66
1.25352e+07
1.97611e+06
652112
336833
206251
136203
94753.9
68711.3
51458.1
39482.6
30858.8
24470.8
19624.1
15871.3
12903.5
10501.1
8480.77
6661.31
5017.54
3434.18
2119.21
1634.34
1637.16
1.2456e+07
1.9655e+06
651663
336926
206269
136234
94834.7
68784.5
51506.7
39511.7
30880.4
24484
19631.8
15874.9
12904.4
10502.5
8486.35
6671.88
5028.41
3442.47
2124.25
1635.89
1638.46
1.23946e+07
1.95954e+06
651020
336897
206410
136344
94920.5
68843.6
51544.8
39535.4
30896.2
24496.4
19639.2
15878.2
12906.4
10508
8496.61
6679.18
5029.37
3443.42
2129.57
1637.37
1638.93
1.23338e+07
1.95612e+06
650567
336962
206605
136501
95008.3
68893.5
51578
39558.1
30907.7
24501.7
19642.9
15880.2
12909.8
10513.5
8500.08
6669.86
5013.01
3434.42
2135.82
1638.75
1639.42
1.23951e+07
1.96253e+06
651959
337363
206788
136625
95080
68930.5
51600.7
39573.2
30915.1
24503.5
19643.6
15882
12912.9
10515.5
8496.32
6655.03
4994.82
3424.35
2144.15
1640.64
1640.59
1.23953e+07
1.9629e+06
652391
337893
207061
136734
95128
68952.3
51608.7
39578.9
30918.1
24505.1
19645.6
15886.4
12916.3
10515.7
8495.14
6655.7
4992.09
3421.73
2150.86
1643.6
1642.09
1.24697e+07
1.97067e+06
653324
338387
207336
136861
95170.3
68979.1
51637.5
39600.8
30937.4
24523.8
19661.8
15899.8
12926.9
10525.1
8507.12
6673.97
4997.5
3413.81
2140.78
1647.58
1643.72
1.24803e+07
1.97421e+06
665567
347606
213132
140724
97894.8
71032.3
53225.2
40858.6
31958.9
25363.4
20361.9
16490.2
13427.2
10941.2
8821.09
6865.38
5095.9
3465.86
2164.21
1684.4
1697.12
1.24803e+07
1.97704e+06
666507
347994
213322
140776
97932.6
71047.2
53233.4
40864.6
31962.5
25366.7
20365.6
16493.9
13431.7
10946
8825.9
6869.36
5105.22
3487.6
2183.88
1685.63
1697.97
1.24802e+07
1.98279e+06
667591
348520
213502
140883
98024.9
71098.9
53267.7
40892.1
31984.3
25386.1
20382.4
16507.9
13443.6
10955.5
8832.08
6874.33
5112.54
3493.65
2186.88
1686.51
1699.14
1.24802e+07
1.98293e+06
667901
348773
213573
140930
98068.4
71126.9
53288.5
40910.6
31999.4
25399.4
20395.2
16519.4
13453.3
10963.5
8839.61
6883.23
5123.92
3507.49
2193.6
1687.51
1700.27
1.25424e+07
1.9867e+06
669034
349073
213712
141030
98107.7
71147.9
53307.4
40927.7
32016.6
25415.8
20408.6
16531.3
13463.2
10972.8
8848.93
6892.35
5131.99
3518.22
2199.33
1688.42
1701.38
1.24733e+07
1.97166e+06
654466
339315
207955
137314
95524.8
69257.9
51843.5
39760.5
31064.6
24623.3
19740
15964.1
12986.7
10582.6
8550.39
6683.78
4975.78
3357.62
2083.79
1644.3
1652.48
1.247e+07
1.97151e+06
655397
339703
208169
137463
95588.7
69296.4
51873.5
39784.8
31083.7
24638.2
19753
15976.1
12996.7
10588.3
8551.02
6682.88
4976.1
3355.25
2083.93
1645.29
1653.27
1.24851e+07
1.97327e+06
655431
339778
208233
137488
95629.7
69324.3
51899.8
39808.8
31101.3
24652.5
19765.4
15986.2
13004.2
10595.5
8561.48
6696.15
4988.96
3360.57
2085.55
1646.42
1654.44
1.24849e+07
1.97352e+06
655146
339947
208393
137593
95700.3
69373.5
51935.5
39834.7
31118.8
24665.2
19775.9
15996.2
13015.3
10609.4
8578.58
6710.07
4996.35
3364.59
2087.72
1647.62
1655.2
1.25469e+07
1.97996e+06
656463
340311
208599
137727
95781.3
69428.4
51975.6
39861.2
31140.2
24681.7
19789.7
16009.6
13030
10625.6
8590.98
6713.21
4992.16
3362.68
2089.59
1648.82
1656.44
1.25467e+07
1.9802e+06
657376
340628
208731
137864
95871
69495.6
52022.5
39888.9
31160.4
24698.6
19804.3
16024.8
13045.6
10638.7
8598.12
6712.7
4987.98
3360.54
2091.36
1649.99
1657.3
1.25466e+07
1.97747e+06
658120
341133
208985
138005
95953.6
69543.1
52059.1
39916.6
31178.1
24715.4
19819.8
16040
13060.3
10650.7
8606.07
6717.11
4991.27
3362.96
2093.41
1651.14
1658.59
1.24733e+07
1.97343e+06
657331
341174
209158
138111
96043
69593.6
52083.8
39939.2
31198
24730.3
19834.5
16054.3
13074.3
10663.7
8617.13
6725.03
4996.73
3367.32
2095.61
1652.24
1659.6
1.24086e+07
1.96987e+06
656774
341293
209231
138138
96060.3
69616.5
52107.8
39958.2
31212.6
24745
19849.4
16069.6
13089.7
10677.8
8627.87
6730.02
4997.81
3369.37
2097.33
1653.27
1660.96
1.24737e+07
1.97629e+06
658118
341680
209481
138272
96134.2
69665.3
52138.2
39979.3
31234
24762.1
19865.5
16086
13104.8
10691
8635.88
6731.67
4996.28
3369.06
2098.27
1654.18
1662.06
1.25325e+07
1.98022e+06
658829
341990
209594
138319
96160.4
69703.2
52174.5
40006.1
31256.2
24783.1
19885
16104
13121.4
10703.7
8643.09
6734.67
4997.4
3369.18
2098.96
1654.99
1663.46
1.25458e+07
1.97846e+06
659073
342368
209770
138453
96267.1
69757.1
52202.9
40032.6
31281.5
24804.9
19904.2
16122
13138.3
10716.7
8651.66
6739.19
5000.52
3370.64
2099.5
1655.77
1664.77
1.25457e+07
1.97854e+06
658796
342405
209944
138588
96347.3
69797.5
52237.1
40059.3
31302.4
24825.4
19924.7
16141.3
13154.5
10729.4
8659.43
6743.11
5002.42
3371.78
2100.05
1656.49
1665.76
1.26083e+07
1.98251e+06
658879
342403
210016
138659
96400.6
69841.3
52271.7
40087.1
31326.3
24846.2
19944.5
16159.8
13170.2
10740.3
8664.88
6744.46
5002.06
3372.53
2100.9
1657.21
1666.84
1.26081e+07
1.9827e+06
659174
342637
210157
138740
96452.6
69886.9
52303.9
40112
31348.2
24866
19963.6
16177.8
13185.3
10750.2
8668.68
6745.29
5002.64
3374.18
2102.06
1657.95
1667.9
1.25452e+07
1.9792e+06
659650
342962
210245
138760
96482.2
69931.6
52340.9
40139.2
31370.3
24888.4
19984
16195
13198.4
10757.9
8672.73
6748.12
5005.14
3377.03
2103.56
1658.64
1669.01
1.24829e+07
1.97552e+06
660149
343395
210420
138838
96508.6
69953.8
52366.1
40165.5
31393.4
24908.8
20002.7
16211.7
13211.1
10766.2
8677.4
6751.21
5007.94
3380.33
2105.44
1659.3
1669.86
1.24743e+07
1.97507e+06
659787
343325
210435
138907
96577.3
70005.9
52407.7
40197.2
31421.9
24934.9
20025.4
16228.8
13222.5
10773
8680.92
6752.96
5009.15
3382.45
2107.14
1659.89
1670.16
1.2471e+07
1.97529e+06
660014
343448
210489
138933
96624.5
70047.1
52444.5
40231.1
31449.1
24957.2
20044.4
16244.1
13232.8
10778.6
8682.15
6752.7
5008.67
3383.12
2108.31
1660.38
1670.54
1.24744e+07
1.97536e+06
660328
343767
210797
139117
96703.1
70091.4
52478
40259.1
31476.5
24981.8
20062.2
16257.4
13241
10781.6
8682.37
6753.02
5010.09
3385.01
2109.69
1660.87
1670.71
1.25333e+07
1.97932e+06
661008
344053
210911
139218
96788.5
70142.7
52518.9
40292.7
31503
25002.2
20079
16268.8
13247
10784.1
8683.81
6756.1
5014.07
3388.21
2111.09
1661.34
1670.89
1.26072e+07
1.98367e+06
662292
344557
211040
139260
96824.9
70173.4
52546.9
40320.9
31526.7
25020.1
20093.3
16278.2
13251.8
10786.7
8686.92
6760.94
5018.82
3391.47
2112.52
1661.8
1671.32
1.24744e+07
1.97615e+06
660685
344105
211013
139307
96841.5
70197.6
52567
40341.5
31544.2
25034.9
20105.4
16286.7
13257
10790.4
8690.37
6764.25
5020.39
3392.31
2113.53
1662.29
1671.96
1.24024e+07
1.97199e+06
659969
343921
211015
139318
96874.6
70233.3
52597.3
40365.1
31565.5
25054.5
20118.7
16295
13262.4
10794
8693.03
6766.29
5021.14
3391.97
2114.86
1662.88
1672.68
1.24028e+07
1.97226e+06
660200
344103
211137
139384
96917.4
70271.7
52630.5
40389
31586.1
25071.3
20130.9
16302.8
13267.2
10797.1
8695.4
6768.86
5025.89
3395.53
2117.75
1663.59
1673.33
1.23419e+07
1.96873e+06
660097
344201
211153
139433
96978.1
70310.9
52662.9
40414.1
31606.2
25086.9
20144.1
16312.1
13272.1
10800.5
8699.28
6774.24
5033.62
3404.66
2122.99
1664.43
1673.93
1.241e+07
1.97295e+06
661301
344823
211389
139518
97064.9
70374.3
52703.8
40444.5
31629.1
25103.2
20155.2
16319.2
13277.1
10804.6
8704.09
6780.36
5037.01
3414.32
2129.35
1665.29
1674.23
1.24816e+07
1.97723e+06
662625
345193
211529
139628
97118.5
70423.6
52738.9
40470.6
31651.1
25121.3
20167.7
16327.5
13282.7
10809.8
8709.48
6784.49
5036.02
3420.09
2134.75
1666.05
1674.66
1.25438e+07
1.98388e+06
663950
345583
211751
139801
97211.2
70471.7
52778.1
40502
31674.7
25137
20177.4
16333.7
13287.6
10814.9
8715.04
6789.69
5042.79
3425.55
2138.66
1666.69
1675.09
1.26064e+07
1.98809e+06
664620
345958
211875
139846
97253.2
70513.9
52813.3
40526.9
31691.9
25151
20188.1
16341.1
13293.5
10820.8
8721.9
6799.66
5060.27
3434.83
2141.73
1667.24
1675.45
1.25435e+07
1.98436e+06
663945
345989
211995
139896
97288
70539.1
52829.1
40545.9
31710.1
25164
20196.8
16346.8
13297.9
10826.1
8729.87
6812.01
5075.48
3443.5
2144.3
1667.79
1676.08
1.24812e+07
1.98111e+06
663360
345845
212075
139917
97316
70582.3
52865.5
40570
31727.4
25174.2
20202.8
16351.9
13303.3
10832.6
8738.25
6821.05
5079.23
3446.48
2146.29
1668.4
1676.73
1.24811e+07
1.97541e+06
663261
346045
212109
139967
97336.3
70592.5
52885.3
40587.4
31740.6
25184.9
20211
16358.1
13309.2
10839.5
8746.01
6827.04
5079.05
3448.31
2149.27
1669.23
1677.44
1.2414e+07
1.97154e+06
663004
346072
212092
140001
97380.8
70617.3
52908
40607.2
31754.1
25193.2
20218
16363.6
13314.9
10846.7
8753.83
6832.98
5085.14
3456.4
2155
1670.31
1678.11
1.23447e+07
1.96759e+06
662885
346204
212190
140069
97438.1
70663.8
52940.9
40630.6
31768.6
25203.2
20224.8
16369.6
13321.6
10853.9
8760.3
6839.49
5096.58
3473.56
2164.67
1671.66
1678.83
1.23449e+07
1.96767e+06
663556
346407
212281
140149
97490.4
70695.3
52962.6
40647
31781.6
25213.6
20231.9
16374.9
13326.7
10858.9
8764.06
6844.87
5108.75
3496.69
2177.82
1673.29
1679.75
1.23453e+07
1.96783e+06
663866
346507
212344
140221
97540
70736.4
52988.1
40667.4
31795
25224
20239.6
16381.7
13333.1
10864
8766.83
6849.93
5117.77
3517.39
2191.83
1675.21
1680.64
1.24112e+07
1.97207e+06
664020
346711
212535
140300
97584.1
70783.4
53016.2
40683
31807
25232.3
20247.3
16387.2
13337.9
10868.7
8771.14
6854.09
5121.66
3529.09
2204.35
1677.34
1681.87
1.24807e+07
1.97623e+06
664709
347117
212776
140400
97645.7
70814.2
53035.9
40697.3
31818.8
25241.1
20254
16394.3
13344.8
10874.9
8776.42
6853.88
5120.4
3533.41
2215.63
1679.39
1682.92
1.24806e+07
1.97915e+06
665035
347380
212882
140463
97690.2
70851.7
53067.9
40721.2
31833.5
25252.2
20262.3
16400.6
13350.9
10881.3
8781.7
6851.37
5118.77
3536.54
2228.77
1681.3
1684
1.24805e+07
1.98224e+06
665454
347557
212982
140548
97740.9
70873.4
53080.4
40726.9
31839
25258.4
20268.9
16408.8
13359.4
10888.5
8787.15
6852.8
5120.12
3541.88
2243.66
1683.59
1685.5
1.24805e+07
1.98201e+06
666129
347697
212944
140546
97767
70870.2
53079.1
40731.7
31844.7
25264.5
20277.2
16418.5
13368.3
10895.6
8793.05
6859.72
5120.31
3543.86
2252.61
1686.96
1686.95
1.24804e+07
1.9797e+06
666180
347705
212965
140568
97761.9
70886.6
53092.4
40742
31860.4
25283.7
20297.4
16437.3
13384.1
10907.8
8801.68
6866.83
5112.49
3529.61
2240.21
1691.27
1688.46
1.24259e+07
1.9867e+06
682471
359782
220274
145278
101191
73579.7
55285.2
42582.1
33440.5
26671.2
21538.7
17561.1
14401.4
11804
9562.96
7484.19
5628.33
3767.04
2203.95
1752.82
1919.66
1.24703e+07
1.98884e+06
683200
359875
220292
145283
101212
73588.3
55285.6
42576.5
33433.9
26665.6
21535
17557.6
14395.7
11794.3
9551.09
7476.12
5632.18
3785.86
2213.44
1753.38
1939.49
1.24737e+07
1.98728e+06
683249
359923
220315
145328
101231
73613.4
55311.5
42600.4
33452.1
26681.3
21547.9
17567.4
14401.1
11795.2
9548.25
7473.53
5629.64
3780.98
2208.96
1753.75
1918.57
1.24086e+07
1.9833e+06
682962
360002
220367
145385
101266
73635.8
55323.3
42612
33464.1
26692.6
21556.2
17572
14402.4
11793.6
9544.32
7470.27
5628.6
3777.04
2204.83
1753.78
1885.93
1.24552e+07
1.98811e+06
683912
360292
220461
145422
101285
73650.7
55339.7
42623
33475.2
26701.1
21562.5
17575.9
14403.4
11791.4
9539.39
7465.67
5627.06
3771.66
2200.02
1754.17
1911.49
1.24549e+07
1.98819e+06
683514
360333
220552
145468
101325
73666.4
55351.7
42635.7
33485.1
26709.1
21568.7
17579
14402.6
11787.4
9532.66
7460.7
5626.04
3769.3
2195.58
1755.36
2005.44
1.2412e+07
1.98573e+06
683390
360145
220426
145448
101331
73677.3
55369.7
42653
33498.8
26719.1
21574.4
17580.8
14401.6
11783
9525.34
7454.31
5621.86
3767.23
2191.16
1756.4
2024.15
1.23666e+07
1.98313e+06
683376
360224
220491
145494
101350
73699.3
55390.5
42669.7
33511.3
26727.4
21578.8
17581.6
14398.8
11776.8
9515.59
7443.94
5613.43
3764.01
2187.26
1755.9
1883.85
1.23669e+07
1.98152e+06
682994
360269
220564
145554
101399
73738.7
55416.6
42690.3
33525.2
26736.2
21582.9
17582.1
14395.7
11769.1
9502.89
7432.75
5608.01
3762.4
2183.87
1754.73
1806
1.24289e+07
1.98321e+06
683407
360521
220758
145644
101451
73777.6
55440.7
42703.9
33534.9
26740
21583.2
17580
14389.9
11759.8
9493.43
7431.47
5615.42
3767.55
2180.55
1754.77
1883.97
1.25423e+07
1.98965e+06
669386
349147
213818
141095
98137.6
71186.7
53337.6
40951
32035.3
25432.1
20423.8
16543.8
13474.3
10982.7
8857.8
6899.34
5137.59
3524.38
2203.25
1689.22
1702.63
1.248e+07
1.98071e+06
667874
348797
213769
141121
98167.2
71226.5
53371.1
40976.8
32058.7
25449.5
20436.4
16555.8
13486
10993.2
8866.35
6905.12
5144.11
3528.06
2205.45
1689.9
1703.98
1.248e+07
1.97523e+06
667196
348884
213740
141125
98217.5
71255.2
53395
40996.9
32075.1
25465.6
20451.4
16568.1
13496.9
11002.8
8873.98
6912.25
5153.68
3532.85
2207.09
1690.56
1705.59
1.248e+07
1.97798e+06
668044
349246
213915
141210
98257.8
71281.1
53419.8
41017.8
32092.8
25480.3
20465
16581.7
13508.8
11012.3
8882.33
6921.08
5163.27
3539.07
2209.05
1691.28
1707.02
1.24799e+07
1.97839e+06
668370
349449
214113
141330
98317.4
71326
53453.7
41039.9
32110.1
25497
20480.6
16594.9
13519.6
11022
8891.54
6929.94
5171.33
3545.46
2211.79
1692.06
1708.13
1.24799e+07
1.98093e+06
668655
349562
214175
141358
98354
71356.7
53479.9
41066
32133.1
25514.7
20495.2
16608.1
13530.7
11031.7
8900.77
6938.17
5180.64
3554.14
2215.9
1692.97
1709.31
1.24799e+07
1.98394e+06
669651
349770
214233
141399
98376.8
71379.2
53495.1
41084.5
32152
25532.5
20511
16621.3
13541.9
11041.4
8909.93
6947.66
5192.77
3566.83
2221.66
1694
1710.49
1.24798e+07
1.97883e+06
669063
349927
214250
141371
98364.2
71392.7
53518.6
41105
32170.2
25549.3
20525.7
16633.6
13552.5
11051.2
8919.8
6958.56
5205.42
3580.81
2228.01
1695
1711.94
1.24798e+07
1.97878e+06
668690
350087
214309
141375
98400.4
71425
53550.1
41132.7
32192.6
25568.4
20541.9
16646.9
13563.8
11061.7
8930.28
6968.92
5214.44
3590.12
2232.93
1695.86
1713.51
1.24176e+07
1.97521e+06
668501
350099
214357
141448
98465.9
71476.2
53589.5
41160.5
32217.6
25587
20556.5
16658.5
13574.6
11072.3
8940.53
6977.43
5221.93
3593.87
2235.61
1696.56
1715.03
1.2353e+07
1.96891e+06
668201
350085
214432
141524
98516.3
71514.8
53617.5
41188.5
32241.1
25605.7
20571.7
16670.8
13585.2
11082.7
8950.55
6986.85
5232.9
3597.91
2237.15
1697.17
1716.5
1.24146e+07
1.97543e+06
668936
350314
214638
141676
98600.2
71577.2
53657.6
41220
32263.7
25622.7
20584.3
16682.1
13595.8
11093.8
8962.24
6999.66
5248.05
3607.19
2239.64
1697.77
1717.94
1.24797e+07
1.97935e+06
669648
350618
214819
141746
98628.5
71591.4
53680.2
41234.7
32274.7
25635
20595.7
16692.3
13607.1
11106.2
8975.3
7013.69
5262.09
3620.3
2243.55
1698.37
1719.6
1.24797e+07
1.98207e+06
670485
350807
214975
141837
98695.2
71627.4
53705.6
41253.7
32288
25646.7
20607.1
16703.7
13619.3
11118.8
8988.32
7026.07
5272.08
3631.52
2247.28
1699.03
1721.1
1.24797e+07
1.98511e+06
671003
350964
214964
141828
98693.8
71640.5
53713.6
41263.7
32301.1
25659.9
20620
16715.8
13631.1
11131.4
9000.3
7035.41
5279.6
3637.37
2249.17
1699.57
1722.47
1.24797e+07
1.98009e+06
669907
350875
214977
141860
98719.5
71665.2
53735.4
41284.5
32317.2
25673.2
20633.2
16729.7
13645.5
11144.7
9011.89
7045.05
5289
3640.08
2249.35
1699.96
1724
1.24797e+07
1.97993e+06
670562
350992
214976
141893
98752.3
71686.8
53759.3
41309.1
32338.7
25692.5
20648.9
16744.4
13660.2
11158.9
9024.37
7056.46
5300.64
3643.04
2249.32
1700.46
1725.55
1.24797e+07
1.9803e+06
671340
351302
215093
141931
98772.9
71712.7
53786.5
41331.7
32360.7
25710.8
20666.8
16761.7
13675.9
11172.9
9037.44
7069.74
5313.05
3649.14
2250.24
1701.18
1727.27
1.25404e+07
1.98384e+06
671393
351396
215230
142025
98820.9
71746.8
53814.7
41356.8
32384.5
25731.9
20684.8
16777.9
13691.2
11187.5
9051.82
7084.24
5327.57
3660.67
2253.81
1702.08
1729.3
1.25435e+07
1.98682e+06
671735
351623
215310
142064
98882.7
71801.1
53852.7
41387.4
32409.2
25754.1
20704.3
16795.3
13707
11203
9067.77
7100.67
5343.58
3675.99
2259.15
1703.12
1731.4
1.24797e+07
1.98587e+06
672194
351746
215308
142081
98940.1
71851.5
53888.2
41414.3
32429.7
25773
20722.4
16812.4
13723.6
11218.6
9082.57
7114.65
5355.42
3688.19
2264.09
1704.14
1733.47
1.24797e+07
1.9859e+06
672938
351974
215391
142135
99004.8
71896.8
53925.7
41445.9
32458.2
25794.6
20740.3
16829.1
13739
11233.2
9095.99
7125.18
5362.12
3692.06
2266.33
1704.99
1735.79
1.24797e+07
1.98338e+06
672493
351998
215491
142224
99067.2
71944
53956.2
41468.2
32476.8
25811.6
20755.8
16844
13753
11245.9
9106.54
7133.18
5368.62
3691.4
2266.16
1705.71
1738.04
1.24797e+07
1.98628e+06
672941
352278
215580
142267
99082.7
71957.7
53972.4
41482.6
32489.4
25825.2
20771
16858.5
13766.5
11257.9
9117.97
7144.57
5382.05
3696.13
2266.61
1706.55
1740.18
1.24798e+07
1.98645e+06
673272
352691
215876
142393
99126.8
71978.8
53990.4
41500.9
32505.4
25840.2
20785.2
16871.6
13778.7
11270.5
9132.24
7161.74
5400.38
3708.81
2269.22
1707.59
1742.65
1.2539e+07
1.99021e+06
673805
352821
215972
142438
99148.3
72003.2
54017.6
41524.9
32528.3
25859.9
20801.9
16886.5
13793.5
11285.9
9149.17
7178.71
5413.01
3719.92
2272.32
1708.6
1745.16
1.25421e+07
1.9903e+06
674506
353059
216007
142490
99204.9
72041.7
54043.1
41544.8
32544.5
25876.3
20817.4
16901.2
13809
11302.2
9164.34
7188.54
5415.37
3723.13
2274.42
1709.5
1747.77
1.24798e+07
1.98419e+06
674242
353174
216078
142533
99220.8
72067.6
54071.9
41569.4
32563.2
25890.5
20831.4
16915.8
13823.3
11315.9
9173.87
7192.28
5417.4
3723.22
2275.15
1710.32
1750.45
1.24799e+07
1.9819e+06
673788
353145
216124
142610
99257.9
72081.8
54080.8
41578.3
32573.3
25902.9
20844.6
16929.3
13836
11326.6
9182.61
7202.33
5431.63
3729.57
2275.11
1711.03
1753.26
1.24799e+07
1.98182e+06
673543
353045
216129
142584
99268.6
72097.4
54093
41593.2
32589.4
25916.4
20857.8
16943.1
13850
11340.8
9200.09
7225.03
5454.11
3742.68
2277.12
1711.88
1755.84
1.24799e+07
1.98469e+06
673925
353323
216308
142647
99301.8
72126.7
54110.2
41606.9
32604.9
25930.8
20870.9
16957.8
13866.4
11359.7
9221.06
7242.67
5461.98
3746
2277.21
1712.67
1758.31
1.248e+07
1.98477e+06
674587
353601
216326
142641
99294.7
72122
54121.5
41619.1
32617
25945.7
20888
16976
13885.9
11378.3
9232.79
7240.97
5451.17
3736.62
2275.22
1713.43
1760.94
1.24181e+07
1.97889e+06
674236
353611
216392
142733
99354.8
72158.8
54141.4
41635.8
32634.1
25963.9
20906.8
16995.2
13904.4
11390.7
9234.26
7236.59
5450.21
3736.67
2275.6
1714.21
1763.99
1.24751e+07
1.98213e+06
674832
353727
216383
142778
99387.4
72188.9
54170.4
41657.1
32654.1
25985.4
20928.5
17014.6
13919.3
11400.2
9243.87
7256.72
5479.58
3760.6
2280.61
1715.11
1767.42
1.25985e+07
1.99208e+06
676392
354149
216507
142817
99405.1
72207
54195.8
41682.3
32676.5
26005.4
20947.7
17032.4
13935
11417.6
9271.63
7294.86
5515.02
3787.67
2286.11
1715.92
1770.27
1.25405e+07
1.98646e+06
675603
353978
216515
142821
99415
72235.1
54220.2
41709.4
32701.8
26028.6
20967.9
17052
13956.5
11444
9299.54
7311.99
5516.42
3786.03
2285.06
1716.43
1772.58
1.24802e+07
1.98273e+06
675373
354085
216619
142839
99459.1
72278.2
54255.1
41735.9
32724.2
26049.8
20989.5
17074.9
13980.4
11463.6
9303.53
7295.19
5490.15
3760.84
2278.41
1716.64
1774.83
1.24803e+07
1.98543e+06
675679
354406
216801
142930
99532.7
72326.3
54289.2
41766.4
32751.3
26074.1
21012.7
17096.8
13997.9
11469
9293.24
7281.56
5483.72
3749.87
2274.01
1716.97
1777.23
1.24803e+07
1.98555e+06
676333
354367
216767
142981
99561.2
72362.6
54324.3
41797
32779
26097.4
21035.2
17116.1
14009.4
11472.3
9300.03
7304.64
5516.72
3771.35
2276.5
1717.58
1779.88
1.24804e+07
1.98561e+06
676552
354586
216923
143079
99615
72401.1
54358.6
41824.9
32802
26119.4
21053.3
17130.7
14020.7
11487.6
9329.25
7343.48
5551.49
3799.13
2281.77
1718.31
1782.34
1.24805e+07
1.98587e+06
675763
354558
216939
143074
99649.2
72428
54377.7
41843.9
32821.5
26138.4
21070.6
17146
14039.2
11511.6
9353.52
7355.93
5550.97
3803.42
2283.62
1718.85
1784.59
1.24806e+07
1.98599e+06
675978
354735
217051
143141
99691.9
72461.7
54409.5
41865.2
32839.3
26154.1
21087.1
17164.2
14058
11525.8
9352.77
7340.04
5531.5
3789.3
2280.75
1719.18
1786.57
1.25361e+07
1.98944e+06
676948
355152
217216
143205
99742.1
72493.8
54431.5
41886.3
32859
26172.8
21104.7
17180.5
14069.6
11526.9
9344.13
7333.01
5532.55
3784.87
2278.09
1719.49
1788.64
1.24768e+07
1.98336e+06
677138
355153
217252
143259
99769.3
72504.6
54439.8
41900.6
32876.1
26190.4
21121.7
17194.2
14076.6
11528.8
9351.23
7352.41
5557.19
3797.25
2277.89
1719.83
1790.83
1.24189e+07
1.98e+06
676567
355026
217268
143282
99777.7
72518.6
54452.3
41914.6
32891.8
26206.1
21135.5
17205.1
14085.1
11540.5
9371.22
7374.95
5573.96
3807.94
2277.96
1720.28
1792.9
1.24189e+07
1.98031e+06
676276
355009
217303
143307
99789.9
72534.6
54473.2
41934.1
32909.8
26222.8
21149.8
17217.3
14098.3
11555.6
9383.54
7378.83
5570.77
3806.27
2276.25
1720.82
1794.85
1.2419e+07
1.98028e+06
676402
355151
217390
143367
99845.5
72571.8
54509.5
41965.4
32934.6
26244.8
21168.7
17233.4
14111.9
11564.1
9385.01
7375.11
5567.29
3802.39
2274.08
1721.3
1797.08
1.24811e+07
1.9867e+06
677076
355485
217606
143453
99887.8
72604.6
54542.4
41991.7
32954.9
26261.3
21183
17246.4
14121.5
11569.1
9388.2
7381.7
5577.99
3805.72
2272.47
1721.83
1799.64
1.24812e+07
1.98682e+06
677713
355838
217734
143524
99943.5
72650.8
54574
42018.7
32977.2
26279.2
21197.1
17257
14128.9
11575.9
9398.53
7395.36
5590.47
3809.67
2270.76
1722.56
1802.7
1.25352e+07
1.99017e+06
678710
356304
217886
143607
99985
72685.2
54600.5
42036.2
32989.6
26291.3
21209.1
17267.3
14137.4
11585.2
9408.48
7402.44
5592.48
3807.62
2268.39
1723.44
1806.33
1.25384e+07
1.99036e+06
678444
356058
217830
143654
100025
72710.5
54619.2
42052.7
33005.7
26304.8
21219.4
17275.9
14145.8
11592.2
9412.73
7403.11
5591.77
3805.16
2266.75
1724.59
1810.77
1.24815e+07
1.98721e+06
678278
356070
217780
143655
100056
72741.8
54636.2
42066.3
33021.2
26319.2
21230.7
17284.7