/*--------------------------------*- C++ -*----------------------------------*\
  =========                 |
  \\      /  F ield         | OpenFOAM: The Open Source CFD Toolbox
   \\    /   O peration     | Website:  https://openfoam.org
    \\  /    A nd           | Version:  10
     \\/     M anipulation  |
\*---------------------------------------------------------------------------*/
FoamFile
{
    format      ascii;
    class       volScalarField;
    location    "200";
    object      p;
}
// * * * * * * * * * * * * * * * * * * * * * * * * * * * * * * * * * * * * * //

dimensions      [0 2 -2 0 0 0 0];

internalField   nonuniform List<scalar> 
96890
(
95.8786
95.8755
95.8784
95.8806
95.8801
95.8855
95.8892
95.8962
95.9042
95.9136
95.926
95.9409
95.9563
95.9745
95.9964
96.0198
96.0435
96.0653
96.0842
96.0966
96.0993
96.0491
96.0699
-226.898
-226.897
-226.897
-226.895
-226.892
-226.886
-226.877
-226.865
-226.847
-226.825
-226.795
-226.755
-226.705
-226.64
-226.556
-226.45
-226.315
-226.142
-225.93
-225.668
-225.347
-224.92
-224.441
-227.909
-227.908
-227.908
-227.906
-227.903
-227.897
-227.889
-227.876
-227.86
-227.839
-227.81
-227.773
-227.724
-227.661
-227.579
-227.474
-227.337
-227.162
-226.941
-226.663
-226.311
-225.851
-225.35
156.044
156.035
156.023
156.01
155.998
155.989
155.982
155.987
156.006
156.044
156.115
156.229
156.407
156.693
157.085
157.578
158.199
158.881
159.553
160.111
160.408
160.218
159.159
183.933
184.102
184.331
184.666
185.181
185.972
187.205
188.94
191.26
194.143
197.534
201.56
206.154
211.058
216.219
221.388
226.127
230.047
232.829
234.34
234.473
231.75
227.197
143.477
143.478
143.478
143.48
143.482
143.488
143.496
143.506
143.521
143.536
143.559
143.586
143.617
143.657
143.701
143.751
143.805
143.856
143.886
143.874
143.763
143.517
142.905
150.651
150.651
150.651
150.652
150.657
150.661
150.676
150.694
150.719
150.757
150.804
150.865
150.942
151.036
151.148
151.279
151.426
151.585
151.735
151.846
151.85
151.682
151.274
109.365
109.365
109.365
109.367
109.37
109.372
109.377
109.383
109.392
109.401
109.411
109.424
109.439
109.455
109.471
109.487
109.5
109.505
109.5
109.474
109.428
109.342
109.152
114.352
114.352
114.352
114.354
114.357
114.36
114.365
114.37
114.378
114.387
114.398
114.409
114.422
114.436
114.448
114.46
114.465
114.46
114.441
114.397
114.318
114.188
113.918
119.475
119.475
119.476
119.477
119.481
119.484
119.49
119.498
119.507
119.519
119.533
119.548
119.565
119.584
119.602
119.619
119.63
119.629
119.611
119.568
119.484
119.347
119.099
124.995
124.996
124.996
124.997
125.001
125.004
125.008
125.017
125.024
125.034
125.046
125.058
125.071
125.084
125.095
125.1
125.095
125.073
125.023
124.932
124.768
124.501
123.921
130.807
130.807
130.808
130.81
130.811
130.818
130.822
130.831
130.841
130.853
130.867
130.881
130.898
130.915
130.929
130.938
130.938
130.922
130.878
130.794
130.64
130.419
129.991
137.098
137.098
137.098
137.1
137.105
137.108
137.116
137.126
137.136
137.151
137.167
137.185
137.206
137.229
137.25
137.27
137.283
137.283
137.26
137.199
137.064
136.845
136.369
104.651
104.652
104.652
104.654
104.654
104.66
104.666
104.674
104.682
104.694
104.709
104.726
104.746
104.769
104.795
104.822
104.847
104.869
104.883
104.878
104.848
104.733
104.427
155.736
155.987
156.388
156.994
157.835
158.925
160.199
161.585
163.018
164.457
165.861
167.213
168.399
169.349
170.266
171.307
172.363
173.374
174.175
174.631
174.568
173.684
171.891
100.295
100.295
100.296
100.295
100.299
100.301
100.307
100.312
100.321
100.331
100.342
100.357
100.374
100.394
100.419
100.446
100.475
100.507
100.542
100.581
100.634
100.687
100.788
61.0238
61.0234
61.0241
61.0243
61.0276
61.0296
61.0339
61.0399
61.0481
61.0585
61.0709
61.087
61.1066
61.1306
61.159
61.1934
61.2334
61.2787
61.3297
61.3851
61.4415
61.5069
61.4994
91.6761
91.6798
91.6786
91.6797
91.6821
91.6853
91.691
91.6983
91.7058
91.7173
91.7305
91.7468
91.7647
91.7858
91.8102
91.8371
91.8646
91.8896
91.9105
91.9203
91.9069
91.848
91.74
87.7761
87.7762
87.7768
87.7772
87.7791
87.7832
87.7883
87.794
87.802
87.8109
87.8236
87.8386
87.855
87.8757
87.8993
87.9256
87.9543
87.9838
88.0121
88.0337
88.0429
88.0376
87.9669
84.0052
84.0056
84.006
84.0065
84.0082
84.0118
84.0168
84.0208
84.028
84.0364
84.0478
84.0599
84.0754
84.0939
84.1147
84.1387
84.1655
84.1936
84.2231
84.2502
84.2806
84.3194
84.3109
80.2982
80.2985
80.2989
80.2995
80.3013
80.3056
80.3082
80.3148
80.322
80.3312
80.3422
80.3557
80.3721
80.3904
80.4115
80.4343
80.4589
80.4817
80.501
80.5072
80.5073
80.473
80.3155
76.8544
76.8521
76.8555
76.8539
76.8577
76.8594
76.8646
76.8714
76.8788
76.8897
76.9016
76.9174
76.9352
76.9577
76.983
77.0122
77.0447
77.0786
77.1119
77.1347
77.1579
77.1195
76.9302
73.6364
73.6392
73.637
73.6392
73.6407
73.6434
73.6483
73.6528
73.6613
73.6703
73.6831
73.6978
73.7166
73.7402
73.7688
73.8037
73.8459
73.8971
73.9597
74.0325
74.146
74.2441
74.4256
70.4019
70.4021
70.4031
70.4031
70.4051
70.408
70.4115
70.4176
70.4241
70.4334
70.4452
70.4593
70.478
70.5007
70.5294
70.565
70.6082
70.6616
70.7267
70.8061
70.9254
71.0045
71.1941
67.1597
67.16
67.1589
67.1614
67.1613
67.1657
67.1695
67.1753
67.1822
67.1926
67.2043
67.22
67.2392
67.2624
67.2913
67.3263
67.3684
67.4182
67.4777
67.5502
67.6432
67.6956
67.9182
63.9964
63.9956
63.9963
63.9974
63.9992
64.0023
64.0066
64.0125
64.0208
64.0312
64.0433
64.0593
64.079
64.1022
64.1298
64.1629
64.2007
64.2415
64.2863
64.3322
64.3694
64.3774
64.54
10.7232
10.7234
10.7243
10.7241
10.7262
10.7284
10.7322
10.7367
10.7437
10.752
10.7636
10.7783
10.7966
10.8198
10.8483
10.8844
10.9291
10.9835
11.051
11.1332
11.2398
11.3505
11.5087
8.87834
8.87837
8.87791
8.87961
8.88045
8.88263
8.8857
8.89004
8.8957
8.90343
8.9133
8.92576
8.94218
8.96302
8.98925
9.02278
9.06502
9.11681
9.18107
9.25846
9.35668
9.45646
9.57908
58.1875
58.187
58.1876
58.1889
58.1906
58.1926
58.1963
58.2014
58.2086
58.217
58.2282
58.2414
58.2585
58.2792
58.3051
58.3364
58.3738
58.4174
58.4683
58.5308
58.6117
58.6967
58.7497
55.3802
55.381
55.381
55.3827
55.3828
55.3859
55.3892
55.3939
55.3999
55.4083
55.419
55.4318
55.4477
55.4677
55.4921
55.5216
55.5565
55.5967
55.6422
55.6944
55.7485
55.7768
55.823
52.6358
52.6362
52.6366
52.6371
52.6396
52.6416
52.6461
52.6521
52.6589
52.6689
52.6807
52.696
52.7146
52.7379
52.7674
52.8027
52.8454
52.8966
52.9574
53.0313
53.1165
53.2118
53.3597
49.9692
49.9674
49.97
49.9693
49.9714
49.9741
49.9788
49.9842
49.9922
50.0013
50.0144
50.0294
50.0492
50.0739
50.1041
50.1401
50.1839
50.2365
50.2988
50.373
50.4584
50.5656
50.6851
47.4209
47.4232
47.4214
47.4245
47.4244
47.4275
47.4316
47.4369
47.444
47.4538
47.4651
47.48
47.4986
47.5217
47.5505
47.5845
47.6253
47.6737
47.7306
47.796
47.8725
47.9688
48.029
44.9773
44.9771
44.9783
44.9779
44.9795
44.9821
44.9853
44.9902
44.9964
45.0045
45.0143
45.0275
45.0433
45.0635
45.0891
45.1201
45.1579
45.203
45.2574
45.3194
45.3935
45.4678
45.4699
42.5366
42.5367
42.537
42.5374
42.5394
42.5422
42.5454
42.5511
42.558
42.5669
42.5789
42.5939
42.6126
42.6358
42.6652
42.701
42.7455
42.799
42.8652
42.9449
43.0484
43.1592
43.281
40.1517
40.1524
40.1528
40.1524
40.1553
40.1566
40.1611
40.1664
40.1734
40.1821
40.1939
40.2089
40.2272
40.2506
40.2797
40.3165
40.3613
40.4155
40.4825
40.5642
40.6693
40.7799
40.9465
37.7958
37.7962
37.7961
37.7969
37.7982
37.8013
37.8045
37.8103
37.8174
37.8269
37.8387
37.8543
37.8731
37.8972
37.9272
37.965
38.0107
38.0662
38.135
38.2176
38.3199
38.4259
38.5616
35.5183
35.5186
35.5186
35.5194
35.5213
35.5237
35.5277
35.5334
35.5408
35.5501
35.5629
35.5779
35.5979
35.6224
35.653
35.691
35.7367
35.792
35.8609
35.9437
36.0474
36.1617
36.313
33.3347
33.3343
33.334
33.336
33.3362
33.3389
33.3423
33.3463
33.3524
33.3603
33.3698
33.3826
33.3989
33.4188
33.4441
33.4763
33.5162
33.5652
33.6266
33.7009
33.7944
33.8964
34.0186
31.0959
31.0958
31.0957
31.0969
31.0992
31.1003
31.1049
31.1093
31.1159
31.1247
31.1359
31.1502
31.168
31.1903
31.2183
31.2533
31.2968
31.3502
31.4163
31.4964
31.5979
31.7091
31.8343
28.9044
28.9049
28.9064
28.9055
28.9072
28.911
28.9136
28.9195
28.9264
28.9352
28.9467
28.9617
28.9802
29.0039
29.0331
29.0703
29.1159
29.1718
29.2413
29.3251
29.4337
29.5532
29.7003
26.7556
26.7549
26.7541
26.7567
26.758
26.7597
26.7639
26.7694
26.7758
26.7848
26.7963
26.8112
26.83
26.8535
26.8829
26.9199
26.9659
27.0227
27.0936
27.1785
27.2898
27.4054
27.5494
24.621
24.6216
24.6224
24.6226
24.6236
24.6274
24.6314
24.637
24.6451
24.655
24.668
24.6843
24.7057
24.7321
24.765
24.8069
24.8586
24.9217
24.9999
25.0948
25.2172
25.3402
25.5112
22.6082
22.6078
22.6089
22.6081
22.6109
22.6125
22.6162
22.6207
22.6273
22.6363
22.6474
22.6615
22.68
22.7031
22.7324
22.7699
22.8171
22.8758
22.949
23.0411
23.1628
23.2944
23.5172
20.5483
20.5499
20.5485
20.5502
20.5514
20.5535
20.5565
20.5606
20.5671
20.5751
20.5851
20.5979
20.6146
20.6361
20.6631
20.6967
20.7394
20.793
20.8605
20.9446
21.0521
21.1782
21.3696
18.4942
18.4946
18.4946
18.4949
18.4974
18.4992
18.5022
18.5073
18.5137
18.5223
18.533
18.5462
18.5634
18.5853
18.613
18.6469
18.6891
18.7403
18.803
18.8772
18.9693
19.0721
19.1599
16.5139
16.5138
16.514
16.5148
16.516
16.5184
16.5217
16.5257
16.5323
16.5407
16.5509
16.5646
16.5818
16.6042
16.6321
16.6674
16.7113
16.7658
16.8338
16.9149
17.02
17.1301
17.2258
14.5273
14.528
14.5278
14.529
14.5303
14.5332
14.5369
14.5426
14.5498
14.5589
14.5716
14.5875
14.6076
14.6334
14.6655
14.7064
14.7566
14.8189
14.8974
14.9929
15.1194
15.2558
15.4425
12.5949
12.5943
12.5944
12.5956
12.5969
12.5997
12.6038
12.6094
12.6164
12.6264
12.6389
12.6552
12.6757
12.7015
12.7341
12.7751
12.8256
12.8868
12.9639
13.0576
13.1798
13.3064
13.5092
-56.8038
-56.8036
-56.8033
-56.8026
-56.8015
-56.7998
-56.7964
-56.7926
-56.7864
-56.7785
-56.7682
-56.7545
-56.7368
-56.714
-56.6845
-56.6473
-56.6004
-56.5407
-56.464
-56.3655
-56.2374
-56.0813
-55.8639
-58.1244
-58.1239
-58.1241
-58.1232
-58.1218
-58.1194
-58.1161
-58.1114
-58.105
-58.0967
-58.0858
-58.0715
-58.053
-58.0293
-57.9988
-57.9601
-57.9111
-57.8494
-57.7711
-57.6729
-57.5497
-57.4057
-57.2263
-59.416
-59.4156
-59.4163
-59.4148
-59.414
-59.4111
-59.4076
-59.4029
-59.3962
-59.3875
-59.3763
-59.3614
-59.3422
-59.3177
-59.2867
-59.2473
-59.1975
-59.1345
-59.054
-58.9526
-58.8213
-58.658
-58.4558
-60.6908
-60.6915
-60.6907
-60.6906
-60.6884
-60.6862
-60.6832
-60.6784
-60.6721
-60.6637
-60.6526
-60.6385
-60.62
-60.5964
-60.5661
-60.5275
-60.4792
-60.4183
-60.3411
-60.2445
-60.122
-59.9802
-59.8263
-61.9736
-61.9739
-61.9736
-61.9727
-61.9711
-61.9686
-61.965
-61.96
-61.9532
-61.9444
-61.9329
-61.9178
-61.8984
-61.874
-61.8428
-61.8034
-61.7535
-61.6902
-61.6097
-61.5085
-61.3778
-61.2198
-61.0107
7.04115
7.04125
7.04215
7.04228
7.04371
7.04595
7.04864
7.05399
7.05953
7.06773
7.07754
7.09065
7.10761
7.1292
7.1562
7.19015
7.23274
7.28567
7.35144
7.43149
7.53569
7.6447
7.79603
5.20262
5.20274
5.20297
5.20306
5.20496
5.20719
5.21123
5.21579
5.22285
5.23126
5.2425
5.25714
5.2759
5.29951
5.32915
5.36627
5.41256
5.47029
5.54202
5.62887
5.73924
5.85903
6.02741
3.42939
3.4294
3.42908
3.43089
3.43194
3.43432
3.43763
3.4424
3.44873
3.45664
3.46717
3.48127
3.49946
3.52279
3.55202
3.58874
3.63502
3.69271
3.76465
3.85275
3.96683
4.09596
4.26853
1.6565
1.65642
1.65705
1.65797
1.65934
1.66181
1.66548
1.67071
1.67772
1.68661
1.69845
1.71395
1.73382
1.75868
1.7899
1.82924
1.87771
1.93736
2.01113
2.1005
2.21375
2.33809
2.48438
-0.00308286
-0.0034813
-0.00276807
-0.00237911
-0.000560811
0.00117918
0.00432784
0.00864551
0.0144908
0.0221081
0.032398
0.0454607
0.0627941
0.0845401
0.11237
0.148054
0.193162
0.24908
0.319425
0.406167
0.517665
0.638293
0.796589
-1.70397
-1.70379
-1.70308
-1.70281
-1.70154
-1.69901
-1.69645
-1.6915
-1.68557
-1.67753
-1.66665
-1.65262
-1.6352
-1.61226
-1.58327
-1.54638
-1.50038
-1.4434
-1.37109
-1.28159
-1.16565
-1.03274
-0.842854
-3.36893
-3.37002
-3.36886
-3.36866
-3.36679
-3.3653
-3.36156
-3.35782
-3.35187
-3.34384
-3.33372
-3.32072
-3.30367
-3.28198
-3.2541
-3.21851
-3.17348
-3.11748
-3.04657
-2.95942
-2.84819
-2.72442
-2.56471
-5.05853
-5.05629
-5.05855
-5.05656
-5.056
-5.05343
-5.05008
-5.04499
-5.0384
-5.02997
-5.01867
-5.00378
-4.98505
-4.96071
-4.93027
-4.89174
-4.84298
-4.78255
-4.70629
-4.61195
-4.48874
-4.34454
-4.16223
-6.69453
-6.69584
-6.69441
-6.69422
-6.69284
-6.69054
-6.68734
-6.68344
-6.6774
-6.66945
-6.65928
-6.6464
-6.62898
-6.60737
-6.57954
-6.54373
-6.49894
-6.44306
-6.37249
-6.28589
-6.17176
-6.04303
-5.87301
-8.36429
-8.36336
-8.36421
-8.36342
-8.36145
-8.35967
-8.35598
-8.35063
-8.3442
-8.33578
-8.32417
-8.30928
-8.29028
-8.2664
-8.23561
-8.1967
-8.14834
-8.08823
-8.01337
-7.9232
-7.80665
-7.68658
-7.55354
-9.98615
-9.98795
-9.98624
-9.98562
-9.98458
-9.9813
-9.97761
-9.97268
-9.96574
-9.95556
-9.94341
-9.92763
-9.90696
-9.881
-9.84774
-9.80615
-9.75446
-9.69092
-9.61071
-9.51209
-9.3802
-9.23193
-9.00799
-11.5209
-11.52
-11.5203
-11.5198
-11.5185
-11.5164
-11.5133
-11.5092
-11.5029
-11.4954
-11.4855
-11.4722
-11.4549
-11.4329
-11.4051
-11.3694
-11.3247
-11.269
-11.1989
-11.1132
-10.9984
-10.8822
-10.7332
-13.11
-13.1107
-13.1103
-13.1094
-13.1081
-13.1062
-13.1027
-13.0978
-13.0914
-13.0832
-13.0727
-13.0586
-13.0403
-13.0172
-12.9878
-12.9502
-12.9027
-12.8431
-12.7681
-12.6742
-12.5472
-12.4128
-12.2185
-14.685
-14.685
-14.6843
-14.6834
-14.6824
-14.6806
-14.6773
-14.6726
-14.6663
-14.6583
-14.648
-14.6345
-14.6166
-14.5941
-14.5651
-14.5285
-14.483
-14.4257
-14.3528
-14.2613
-14.1415
-14.019
-13.8129
-16.2772
-16.2772
-16.2766
-16.2757
-16.2745
-16.2723
-16.2686
-16.2633
-16.2568
-16.2478
-16.2366
-16.2219
-16.2034
-16.18
-16.1503
-16.113
-16.0662
-16.0087
-15.9372
-15.8495
-15.7387
-15.6126
-15.3996
-17.7982
-17.7974
-17.7971
-17.7966
-17.7957
-17.7937
-17.7905
-17.7864
-17.7802
-17.7722
-17.7619
-17.7485
-17.731
-17.7083
-17.6795
-17.6432
-17.5981
-17.5418
-17.4705
-17.3841
-17.2758
-17.1472
-17.0085
-19.3561
-19.356
-19.3558
-19.3552
-19.3536
-19.3506
-19.3472
-19.3417
-19.3353
-19.326
-19.3137
-19.2981
-19.2781
-19.2528
-19.2206
-19.1798
-19.1283
-19.0636
-18.9815
-18.8796
-18.7422
-18.5778
-18.4111
-20.8597
-20.8595
-20.8599
-20.8588
-20.8574
-20.855
-20.8512
-20.8465
-20.8394
-20.8304
-20.8187
-20.8034
-20.7836
-20.7586
-20.7265
-20.687
-20.638
-20.5766
-20.5
-20.4061
-20.283
-20.1623
-19.9713
-22.3026
-22.3028
-22.302
-22.3016
-22.3002
-22.2984
-22.2953
-22.291
-22.2852
-22.2773
-22.2667
-22.2533
-22.2363
-22.2141
-22.1859
-22.15
-22.1046
-22.0467
-21.9728
-21.8803
-21.7582
-21.6167
-21.4117
-23.8053
-23.805
-23.8054
-23.8044
-23.8029
-23.8006
-23.7975
-23.7928
-23.787
-23.779
-23.7687
-23.7555
-23.7379
-23.7159
-23.6879
-23.6524
-23.6078
-23.5513
-23.4797
-23.3916
-23.2744
-23.1463
-22.99
-25.3125
-25.3136
-25.3122
-25.3117
-25.3106
-25.3081
-25.3044
-25.2999
-25.2929
-25.2844
-25.2731
-25.2587
-25.2398
-25.2164
-25.1865
-25.1485
-25.101
-25.0413
-24.9659
-24.8734
-24.7493
-24.6128
-24.4333
-26.7793
-26.7792
-26.7789
-26.7783
-26.777
-26.7746
-26.7716
-26.7668
-26.7611
-26.753
-26.7427
-26.7288
-26.711
-26.6885
-26.6598
-26.6235
-26.5783
-26.5215
-26.4493
-26.3609
-26.2436
-26.1273
-25.9514
-28.2438
-28.2417
-28.2435
-28.242
-28.2406
-28.2386
-28.2349
-28.2302
-28.2238
-28.2156
-28.2045
-28.1899
-28.1718
-28.1484
-28.119
-28.0816
-28.0345
-27.9757
-27.9014
-27.8093
-27.688
-27.5561
-27.3459
-29.6824
-29.6833
-29.6821
-29.6814
-29.6802
-29.6785
-29.6746
-29.67
-29.6636
-29.6556
-29.6446
-29.6306
-29.6124
-29.5889
-29.5594
-29.522
-29.4747
-29.4151
-29.3401
-29.2481
-29.1286
-28.9974
-28.8374
-31.1065
-31.1056
-31.1062
-31.105
-31.1038
-31.1014
-31.0981
-31.0931
-31.0864
-31.0778
-31.0664
-31.0514
-31.0318
-31.0072
-30.9762
-30.9366
-30.8872
-30.8246
-30.7456
-30.6468
-30.5174
-30.3693
-30.1631
-32.493
-32.493
-32.4924
-32.4918
-32.4909
-32.4885
-32.4851
-32.481
-32.4744
-32.4668
-32.4562
-32.4427
-32.4249
-32.4025
-32.3731
-32.3363
-32.2899
-32.2308
-32.1561
-32.0636
-31.9416
-31.8017
-31.6115
-33.8835
-33.8844
-33.8836
-33.8833
-33.8821
-33.8802
-33.877
-33.8729
-33.8677
-33.8599
-33.85
-33.837
-33.8207
-33.7995
-33.7727
-33.7385
-33.6953
-33.6403
-33.57
-33.4824
-33.3671
-33.2392
-33.0833
-35.3245
-35.3245
-35.3237
-35.3237
-35.3219
-35.3191
-35.3166
-35.3119
-35.3055
-35.2971
-35.2864
-35.2728
-35.2552
-35.2327
-35.2037
-35.1671
-35.1204
-35.0617
-34.9883
-34.8961
-34.7758
-34.6389
-34.4417
-36.7383
-36.7385
-36.7386
-36.7374
-36.7357
-36.734
-36.73
-36.7254
-36.7187
-36.7103
-36.6991
-36.6846
-36.6662
-36.6426
-36.6128
-36.5757
-36.5291
-36.4706
-36.3977
-36.307
-36.1916
-36.0604
-35.8976
-38.122
-38.1228
-38.1216
-38.1208
-38.1202
-38.1173
-38.1146
-38.11
-38.1036
-38.0949
-38.0839
-38.0698
-38.0519
-38.029
-37.9997
-37.9628
-37.9158
-37.8568
-37.7821
-37.6886
-37.5684
-37.4293
-37.2535
-39.5162
-39.5147
-39.5161
-39.5146
-39.5126
-39.5111
-39.5066
-39.5019
-39.4951
-39.4863
-39.4749
-39.4601
-39.4409
-39.4166
-39.3856
-39.3465
-39.2974
-39.236
-39.1589
-39.0637
-38.9418
-38.8009
-38.6224
-40.8685
-40.8692
-40.8681
-40.8675
-40.866
-40.8635
-40.8599
-40.8546
-40.8474
-40.8383
-40.826
-40.8103
-40.7902
-40.7652
-40.7334
-40.6933
-40.6427
-40.5789
-40.499
-40.3993
-40.2709
-40.1207
-39.94
-42.1986
-42.1991
-42.198
-42.1977
-42.1965
-42.1937
-42.1904
-42.1851
-42.1786
-42.1695
-42.158
-42.143
-42.1236
-42.0992
-42.0678
-42.0278
-41.9775
-41.9139
-41.8335
-41.7317
-41.5998
-41.4411
-41.2361
-43.5098
-43.5082
-43.5093
-43.5082
-43.5067
-43.5045
-43.501
-43.4964
-43.4901
-43.4821
-43.4714
-43.4577
-43.44
-43.4174
-43.3883
-43.3517
-43.3051
-43.2459
-43.171
-43.0759
-42.9538
-42.8123
-42.6366
-44.8608
-44.8613
-44.8607
-44.8603
-44.8586
-44.8564
-44.8534
-44.8483
-44.8426
-44.8341
-44.8235
-44.8096
-44.792
-44.7693
-44.7401
-44.7025
-44.6544
-44.5935
-44.5162
-44.4179
-44.2908
-44.1335
-43.9267
-46.2144
-46.2137
-46.214
-46.2135
-46.2117
-46.2096
-46.2061
-46.2016
-46.1951
-46.187
-46.1763
-46.1622
-46.1443
-46.121
-46.0918
-46.0545
-46.0073
-45.9478
-45.8723
-45.7774
-45.6576
-45.5176
-45.365
-47.575
-47.5753
-47.575
-47.5744
-47.5728
-47.5701
-47.567
-47.5615
-47.5555
-47.5467
-47.5355
-47.5208
-47.5021
-47.4782
-47.4471
-47.407
-47.3557
-47.2913
-47.2091
-47.105
-46.9696
-46.8101
-46.6062
-48.9398
-48.9399
-48.94
-48.9387
-48.9372
-48.9357
-48.932
-48.9281
-48.9219
-48.9138
-48.9031
-48.8893
-48.8713
-48.8481
-48.8183
-48.7804
-48.7323
-48.6712
-48.5929
-48.4922
-48.3606
-48.1953
-47.956
-50.3288
-50.3293
-50.3281
-50.3277
-50.3267
-50.3239
-50.3204
-50.3156
-50.3087
-50.3002
-50.2892
-50.2745
-50.256
-50.2326
-50.2023
-50.164
-50.1161
-50.0567
-49.9829
-49.8925
-49.7838
-49.662
-49.5394
-51.6438
-51.6426
-51.6438
-51.6419
-51.6408
-51.6383
-51.6349
-51.6296
-51.6231
-51.6141
-51.602
-51.5864
-51.5665
-51.5407
-51.5079
-51.4668
-51.415
-51.3499
-51.2672
-51.1632
-51.0322
-50.8744
-50.6892
-52.9441
-52.9448
-52.9436
-52.9436
-52.942
-52.9398
-52.9361
-52.9318
-52.9247
-52.9161
-52.9049
-52.8903
-52.8711
-52.8464
-52.8146
-52.7741
-52.7228
-52.6576
-52.574
-52.4673
-52.3292
-52.1482
-51.9126
-54.2342
-54.2337
-54.2338
-54.233
-54.232
-54.2295
-54.2267
-54.2224
-54.2167
-54.2091
-54.1984
-54.1846
-54.167
-54.1443
-54.1152
-54.0784
-54.0322
-53.9737
-53.9
-53.8078
-53.6909
-53.5498
-53.4081
-55.522
-55.5231
-55.5219
-55.5221
-55.5198
-55.5183
-55.5152
-55.5103
-55.5045
-55.4956
-55.4848
-55.4708
-55.4527
-55.4293
-55.3993
-55.3616
-55.315
-55.2561
-55.1822
-55.0901
-54.9758
-54.848
-54.7191
-156.986
-156.985
-156.985
-156.984
-156.982
-156.978
-156.973
-156.966
-156.955
-156.942
-156.924
-156.901
-156.871
-156.832
-156.782
-156.718
-156.637
-156.535
-156.407
-156.242
-156.045
-155.779
-155.458
-158.094
-158.095
-158.093
-158.093
-158.09
-158.087
-158.081
-158.074
-158.063
-158.049
-158.031
-158.008
-157.978
-157.939
-157.889
-157.825
-157.743
-157.64
-157.509
-157.341
-157.134
-156.866
-156.582
-159.208
-159.207
-159.207
-159.206
-159.204
-159.2
-159.195
-159.187
-159.178
-159.164
-159.147
-159.124
-159.095
-159.057
-159.009
-158.947
-158.868
-158.767
-158.642
-158.48
-158.278
-157.995
-157.617
-160.294
-160.294
-160.293
-160.292
-160.29
-160.286
-160.28
-160.272
-160.262
-160.248
-160.231
-160.208
-160.178
-160.141
-160.093
-160.033
-159.956
-159.861
-159.746
-159.605
-159.442
-159.243
-159.11
-161.338
-161.338
-161.337
-161.336
-161.333
-161.329
-161.323
-161.315
-161.304
-161.29
-161.271
-161.246
-161.214
-161.173
-161.121
-161.054
-160.969
-160.86
-160.724
-160.55
-160.324
-160.036
-159.758
-162.391
-162.391
-162.391
-162.39
-162.388
-162.384
-162.378
-162.371
-162.36
-162.346
-162.327
-162.303
-162.271
-162.231
-162.179
-162.113
-162.029
-161.923
-161.79
-161.62
-161.405
-161.141
-160.811
-163.437
-163.437
-163.436
-163.435
-163.433
-163.429
-163.424
-163.416
-163.405
-163.39
-163.371
-163.346
-163.314
-163.272
-163.218
-163.15
-163.063
-162.953
-162.815
-162.64
-162.421
-162.161
-161.854
-164.467
-164.467
-164.467
-164.465
-164.463
-164.458
-164.452
-164.444
-164.432
-164.417
-164.397
-164.371
-164.337
-164.294
-164.239
-164.169
-164.081
-163.97
-163.829
-163.649
-163.424
-163.151
-162.801
-165.478
-165.478
-165.477
-165.476
-165.474
-165.471
-165.465
-165.457
-165.447
-165.432
-165.414
-165.39
-165.359
-165.319
-165.268
-165.202
-165.119
-165.013
-164.879
-164.707
-164.492
-164.207
-163.833
-166.536
-166.537
-166.536
-166.535
-166.533
-166.529
-166.523
-166.515
-166.505
-166.49
-166.472
-166.448
-166.417
-166.378
-166.328
-166.264
-166.184
-166.082
-165.955
-165.796
-165.603
-165.36
-165.124
-63.2292
-63.2286
-63.2292
-63.2281
-63.2264
-63.2241
-63.2205
-63.215
-63.2084
-63.1994
-63.1875
-63.1729
-63.1536
-63.1288
-63.0976
-63.0582
-63.009
-62.948
-62.8715
-62.7765
-62.6592
-62.5251
-62.3666
-64.4116
-64.4125
-64.4113
-64.411
-64.4096
-64.4076
-64.4041
-64.3997
-64.3935
-64.3854
-64.3746
-64.3604
-64.3424
-64.3194
-64.2896
-64.2518
-64.2037
-64.143
-64.0659
-63.9701
-63.8495
-63.7084
-63.5423
-65.6142
-65.6141
-65.6137
-65.6128
-65.6124
-65.6098
-65.6071
-65.6029
-65.5967
-65.589
-65.5788
-65.5655
-65.5477
-65.5247
-65.4953
-65.4578
-65.4096
-65.3479
-65.2679
-65.1657
-65.0339
-64.8671
-64.6494
-66.8536
-66.853
-66.8531
-66.8528
-66.8506
-66.849
-66.8458
-66.841
-66.835
-66.827
-66.8163
-66.802
-66.7836
-66.7602
-66.7301
-66.6916
-66.6426
-66.5805
-66.5013
-66.4014
-66.2735
-66.1199
-65.9512
-68.099
-68.0995
-68.099
-68.098
-68.0972
-68.0947
-68.091
-68.0862
-68.0798
-68.0709
-68.0594
-68.0446
-68.0253
-68.0004
-67.9683
-67.9271
-67.8747
-67.8078
-67.7221
-67.6135
-67.4733
-67.3078
-67.091
-69.3684
-69.3673
-69.3679
-69.3671
-69.365
-69.3626
-69.3589
-69.354
-69.3468
-69.3374
-69.3251
-69.3088
-69.2882
-69.2621
-69.2284
-69.1857
-69.1313
-69.0622
-68.9738
-68.8606
-68.7136
-68.5325
-68.2761
-70.6054
-70.606
-70.6052
-70.6047
-70.6034
-70.6012
-70.5982
-70.593
-70.5869
-70.5784
-70.5675
-70.553
-70.5341
-70.5101
-70.4789
-70.4389
-70.3882
-70.3237
-70.2414
-70.1395
-70.0119
-69.8572
-69.6924
-71.8726
-71.873
-71.8725
-71.8715
-71.8705
-71.8678
-71.8639
-71.8592
-71.8521
-71.8427
-71.8307
-71.8149
-71.7946
-71.7688
-71.7357
-71.6933
-71.6399
-71.572
-71.4853
-71.3772
-71.2368
-71.0628
-70.8643
-73.1107
-73.1099
-73.1102
-73.109
-73.1077
-73.105
-73.1014
-73.0966
-73.0898
-73.0808
-73.0687
-73.0534
-73.0334
-73.0078
-72.9747
-72.9326
-72.8793
-72.8128
-72.7288
-72.6249
-72.4897
-72.3335
-72.1545
-74.3176
-74.3172
-74.3166
-74.3167
-74.3152
-74.3129
-74.3096
-74.3051
-74.2987
-74.29
-74.2786
-74.264
-74.2446
-74.2204
-74.1891
-74.149
-74.0973
-74.0318
-73.9479
-73.8423
-73.7014
-73.5479
-73.3254
-75.5445
-75.5443
-75.5442
-75.5436
-75.5418
-75.5393
-75.5357
-75.5311
-75.5247
-75.5158
-75.505
-75.4904
-75.4717
-75.4479
-75.4174
-75.3785
-75.3284
-75.2654
-75.1852
-75.0838
-74.9538
-74.8048
-74.5637
-76.7491
-76.749
-76.749
-76.7482
-76.747
-76.7446
-76.7415
-76.7367
-76.7304
-76.7222
-76.7109
-76.6964
-76.6778
-76.6539
-76.6233
-76.5842
-76.5346
-76.4726
-76.3938
-76.2969
-76.1775
-76.0471
-75.8932
-77.9729
-77.9733
-77.9721
-77.9717
-77.9698
-77.9674
-77.9632
-77.9583
-77.9506
-77.9414
-77.9289
-77.9127
-77.8919
-77.8652
-77.8309
-77.7872
-77.7313
-77.6605
-77.5698
-77.4535
-77.3039
-77.109
-76.8809
-79.2083
-79.2072
-79.2077
-79.2068
-79.2053
-79.203
-79.1995
-79.1943
-79.1877
-79.1788
-79.167
-79.1522
-79.1334
-79.1095
-79.0788
-79.0393
-78.9896
-78.9273
-78.8475
-78.7462
-78.6162
-78.4501
-78.2096
-80.4122
-80.4127
-80.4122
-80.411
-80.4097
-80.4068
-80.4032
-80.398
-80.3911
-80.3817
-80.3699
-80.3546
-80.335
-80.3102
-80.2791
-80.2407
-80.1935
-80.1363
-80.0677
-79.9893
-79.9051
-79.8236
-79.8011
-81.4961
-81.4964
-81.4958
-81.4952
-81.4935
-81.4912
-81.488
-81.4831
-81.4764
-81.4677
-81.4562
-81.4412
-81.4224
-81.3977
-81.3653
-81.3238
-81.2712
-81.2041
-81.1176
-81.0078
-80.8658
-80.679
-80.4732
-82.673
-82.6724
-82.6719
-82.6713
-82.6698
-82.6671
-82.663
-82.6574
-82.65
-82.6401
-82.6271
-82.6103
-82.5884
-82.5607
-82.5255
-82.4806
-82.4239
-82.3525
-82.2618
-82.1481
-81.9989
-81.8225
-81.566
-83.7559
-83.7563
-83.7558
-83.7552
-83.7534
-83.751
-83.7476
-83.7427
-83.736
-83.727
-83.715
-83.6996
-83.6794
-83.6535
-83.6202
-83.5777
-83.5245
-83.4573
-83.3715
-83.2653
-83.1297
-82.972
-82.8007
-84.8412
-84.8412
-84.8411
-84.84
-84.8389
-84.8366
-84.8332
-84.8285
-84.8219
-84.8132
-84.8021
-84.7874
-84.768
-84.7433
-84.711
-84.6695
-84.6166
-84.5492
-84.4634
-84.3549
-84.2117
-84.0352
-83.7983
-85.9688
-85.9682
-85.9683
-85.9675
-85.9664
-85.9642
-85.9609
-85.9563
-85.9499
-85.9413
-85.9302
-85.9151
-85.8957
-85.8705
-85.8382
-85.7974
-85.7458
-85.6802
-85.5964
-85.4928
-85.3586
-85.2013
-85.0033
-87.0903
-87.0898
-87.0899
-87.0894
-87.0877
-87.0855
-87.0821
-87.0775
-87.0705
-87.0617
-87.0498
-87.0347
-87.0146
-86.989
-86.9558
-86.9134
-86.8593
-86.7908
-86.703
-86.5925
-86.4444
-86.2703
-86.0523
-88.246
-88.2465
-88.2457
-88.245
-88.2432
-88.2406
-88.237
-88.2317
-88.2243
-88.2148
-88.2021
-88.1854
-88.1635
-88.1355
-88.0997
-88.0538
-87.9951
-87.9211
-87.8268
-87.7082
-87.5543
-87.378
-87.1318
-89.3811
-89.381
-89.3812
-89.3801
-89.3785
-89.376
-89.3725
-89.367
-89.3598
-89.35
-89.3373
-89.3205
-89.2984
-89.27
-89.2335
-89.1867
-89.1263
-89.0495
-88.9498
-88.823
-88.6603
-88.4699
-88.1946
-90.6357
-90.6353
-90.6353
-90.6338
-90.6325
-90.6292
-90.6258
-90.6206
-90.613
-90.6032
-90.5909
-90.5745
-90.5535
-90.5266
-90.4921
-90.4474
-90.3902
-90.3164
-90.2198
-90.0942
-89.9219
-89.6891
-89.4025
-91.9057
-91.9062
-91.9057
-91.905
-91.9028
-91.9007
-91.8965
-91.8909
-91.8836
-91.8742
-91.862
-91.8468
-91.8274
-91.803
-91.7729
-91.7359
-91.6912
-91.6374
-91.5749
-91.5031
-91.4167
-91.3254
-91.2472
-92.9803
-92.9804
-92.9798
-92.9789
-92.9775
-92.9743
-92.97
-92.9641
-92.9561
-92.9454
-92.9312
-92.9125
-92.8888
-92.8585
-92.8202
-92.7722
-92.7127
-92.6406
-92.5552
-92.46
-92.3695
-92.344
-92.4481
-94.0512
-94.051
-94.0504
-94.05
-94.0481
-94.0457
-94.0417
-94.0358
-94.0282
-94.0179
-94.0045
-93.9867
-93.963
-93.9318
-93.8906
-93.8363
-93.7633
-93.6643
-93.5266
-93.3306
-93.0344
-92.5614
-91.7805
-95.3834
-95.3834
-95.3831
-95.3817
-95.3801
-95.3773
-95.3735
-95.3678
-95.3606
-95.3509
-95.3383
-95.3221
-95.3019
-95.2766
-95.245
-95.2067
-95.1605
-95.1055
-95.0439
-94.9772
-94.9144
-94.8858
-94.9126
-96.3999
-96.4001
-96.3996
-96.3993
-96.3979
-96.3955
-96.3922
-96.3873
-96.3809
-96.3725
-96.3615
-96.3471
-96.3287
-96.3049
-96.274
-96.2349
-96.1854
-96.1229
-96.0459
-95.9502
-95.8372
-95.7136
-95.5928
-97.5996
-97.599
-97.5993
-97.5978
-97.596
-97.5939
-97.5895
-97.5845
-97.5772
-97.5676
-97.5551
-97.539
-97.5181
-97.4914
-97.4568
-97.4126
-97.3569
-97.2864
-97.1965
-97.079
-96.9242
-96.72
-96.4048
-98.7173
-98.7173
-98.717
-98.7162
-98.7149
-98.7119
-98.7085
-98.7028
-98.6953
-98.6859
-98.6736
-98.6573
-98.6365
-98.6107
-98.5779
-98.5366
-98.4858
-98.4238
-98.3482
-98.2573
-98.1568
-98.0384
-97.9296
-99.7611
-99.7611
-99.7605
-99.7599
-99.7583
-99.756
-99.7519
-99.7469
-99.7399
-99.7306
-99.7185
-99.7026
-99.6816
-99.6549
-99.6203
-99.5762
-99.5203
-99.4499
-99.3608
-99.2474
-99.105
-98.9088
-98.6981
-100.838
-100.837
-100.837
-100.837
-100.835
-100.832
-100.828
-100.822
-100.815
-100.804
-100.791
-100.774
-100.751
-100.722
-100.686
-100.638
-100.579
-100.504
-100.41
-100.29
-100.139
-99.9529
-99.7421
-101.913
-101.914
-101.913
-101.912
-101.91
-101.908
-101.904
-101.898
-101.891
-101.881
-101.868
-101.851
-101.829
-101.8
-101.762
-101.714
-101.652
-101.573
-101.47
-101.336
-101.16
-100.93
-100.638
-103.082
-103.082
-103.082
-103.081
-103.079
-103.076
-103.071
-103.065
-103.056
-103.045
-103.03
-103.011
-102.987
-102.956
-102.916
-102.866
-102.805
-102.729
-102.634
-102.515
-102.37
-102.186
-101.994
-104.111
-104.111
-104.11
-104.11
-104.108
-104.106
-104.102
-104.096
-104.089
-104.079
-104.067
-104.05
-104.028
-104.001
-103.966
-103.921
-103.865
-103.796
-103.708
-103.597
-103.458
-103.289
-103.072
-105.155
-105.154
-105.154
-105.153
-105.152
-105.15
-105.146
-105.142
-105.135
-105.126
-105.114
-105.098
-105.078
-105.053
-105.019
-104.976
-104.921
-104.852
-104.765
-104.656
-104.528
-104.375
-104.227
-106.241
-106.241
-106.241
-106.24
-106.239
-106.236
-106.232
-106.226
-106.219
-106.208
-106.195
-106.178
-106.155
-106.125
-106.087
-106.039
-105.978
-105.899
-105.796
-105.663
-105.488
-105.247
-104.961
-107.358
-107.358
-107.357
-107.357
-107.354
-107.352
-107.348
-107.342
-107.334
-107.324
-107.311
-107.293
-107.271
-107.242
-107.205
-107.157
-107.096
-107.02
-106.924
-106.803
-106.649
-106.447
-106.214
-108.455
-108.455
-108.456
-108.454
-108.453
-108.45
-108.446
-108.441
-108.434
-108.424
-108.411
-108.394
-108.372
-108.343
-108.307
-108.259
-108.198
-108.121
-108.023
-107.894
-107.726
-107.529
-107.301
-109.633
-109.633
-109.632
-109.631
-109.63
-109.627
-109.622
-109.616
-109.608
-109.597
-109.583
-109.565
-109.541
-109.511
-109.473
-109.424
-109.363
-109.287
-109.193
-109.072
-108.922
-108.739
-108.488
-110.709
-110.709
-110.709
-110.708
-110.706
-110.704
-110.7
-110.694
-110.687
-110.677
-110.664
-110.647
-110.625
-110.597
-110.561
-110.515
-110.457
-110.383
-110.292
-110.174
-110.03
-109.868
-109.647
-111.829
-111.83
-111.829
-111.828