/*--------------------------------*- C++ -*----------------------------------*\
  =========                 |
  \\      /  F ield         | OpenFOAM: The Open Source CFD Toolbox
   \\    /   O peration     | Website:  https://openfoam.org
    \\  /    A nd           | Version:  10
     \\/     M anipulation  |
\*---------------------------------------------------------------------------*/
FoamFile
{
    format      ascii;
    class       surfaceScalarField;
    location    "200";
    object      phi;
}
// * * * * * * * * * * * * * * * * * * * * * * * * * * * * * * * * * * * * * //

dimensions      [0 3 -1 0 0 0 0];

internalField   nonuniform List<scalar> 
154254
(
7.06634e-08
1.33571e-05
-1.34126e-05
9.83369e-07
5.15615e-05
-5.24422e-05
2.24078e-06
0.000112356
-0.000113602
3.45201e-06
0.000195131
-0.000196316
6.95994e-06
0.000292302
-0.000295808
9.14625e-06
0.000407437
-0.000409606
1.32091e-05
0.000542957
-0.000547021
1.82418e-05
0.000707687
-0.000712708
2.44782e-05
0.000906835
-0.000913073
3.19315e-05
0.00115398
-0.00116142
4.10485e-05
0.00145762
-0.00146674
5.18888e-05
0.00183092
-0.00184175
6.4973e-05
0.00229049
-0.00230357
8.07318e-05
0.00286187
-0.00287762
9.74756e-05
0.00356516
-0.0035819
0.000121462
0.00443016
-0.00445413
0.00014785
0.00549794
-0.00552433
0.000177405
0.00681797
-0.00684751
0.000216795
0.00844273
-0.00848212
0.000258939
0.0104399
-0.0104821
0.000311434
0.012855
-0.0129074
0.000370835
0.0157299
-0.0157894
0.0191177
-0.0191866
0.000439658
-7.80935e-08
-1.89866e-05
1.89601e-05
-2.63988e-07
-7.26348e-05
7.27062e-05
-6.16826e-07
-0.000153863
0.000154098
-1.03297e-06
-0.000258825
0.000259162
-1.86492e-06
-0.000377456
0.000378209
-1.33522e-06
-0.000517799
0.000517216
-1.85126e-06
-0.0006821
0.000682558
-1.90305e-06
-0.00088044
0.000880447
-4.16412e-06
-0.00112145
0.00112367
-4.60904e-06
-0.00141695
0.00141735
-4.97378e-06
-0.00178147
0.0017818
-5.17822e-06
-0.00222623
0.00222639
-5.16717e-06
-0.00277473
0.00277469
-3.30859e-06
-0.0034513
0.00344941
-4.45667e-06
-0.00428116
0.00428229
-2.63185e-06
-0.0053052
0.00530333
-2.53574e-06
-0.00656176
0.00656165
-2.703e-06
-0.00809897
0.00809909
-5.27124e-06
-0.00993738
0.00993993
-9.12442e-06
-0.0121092
0.0121129
-1.74197e-05
-0.0146938
0.0147021
-2.3072e-05
-0.0178273
0.0178329
-0.0217117
0.0217194
-3.07915e-05
-8.46063e-08
-1.8943e-05
-2.72036e-07
-7.24819e-05
-6.00296e-07
-0.00015359
-9.89076e-07
-0.000258462
-1.1272e-06
-0.000377362
-1.92686e-06
-0.000517021
-2.36246e-06
-0.000681703
-2.73332e-06
-0.000880094
-3.07939e-06
-0.00112114
-1.99124e-06
-0.00141807
-3.64044e-06
-0.00177985
-3.69679e-06
-0.0022262
-1.97219e-06
-0.00277648
-3.74314e-06
-0.00344956
-3.10189e-06
-0.00428183
-2.22044e-06
-0.00530611
4.57508e-07
-0.00656449
-1.98449e-06
-0.00809656
-2.65804e-06
-0.00993678
-8.13227e-06
-0.0121037
-1.22966e-05
-0.0146897
-2.12373e-05
-0.0178184
-0.0217073
-2.58236e-05
-3.45412e-07
-1.16901e-05
1.26899e-05
-3.1599e-06
-4.50194e-05
4.86096e-05
-8.85575e-06
-9.82882e-05
0.00010466
-1.61445e-05
-0.000172377
0.000180137
-2.42815e-05
-0.000260909
0.000269395
-3.34769e-05
-0.000362884
0.000372305
-4.00065e-05
-0.000487743
0.000494448
-4.62054e-05
-0.000636707
0.000643031
-5.18133e-05
-0.000818864
0.000824572
-5.17999e-05
-0.00104743
0.00104749
-4.97231e-05
-0.0013259
0.00132388
-4.43075e-05
-0.00167173
0.00166635
-2.95106e-05
-0.0021022
0.00208745
-7.76163e-06
-0.00263423
0.00261252
2.34055e-05
-0.00329143
0.00326031
7.4904e-05
-0.00410909
0.00405762
0.000141355
-0.0051169
0.00505051
0.000228951
-0.00636352
0.00627593
0.000335987
-0.00790524
0.00779829
0.000470337
-0.00980786
0.0096735
0.000624796
-0.0121208
0.0119664
0.000804432
-0.0148941
0.0147145
-0.0181792
0.0179759
0.00100775
1.67829e-05
-8.76628e-06
-8.36284e-06
4.30419e-05
-1.39325e-05
-1.34667e-05
9.52596e-05
-2.65524e-05
-2.59343e-05
0.000189461
-4.842e-05
-4.7638e-05
0.000318721
-6.48538e-05
-6.4131e-05
0.000505587
-9.46958e-05
-9.39434e-05
0.000759689
-0.000126966
-0.000126286
0.00106882
-0.000155494
-0.000154915
0.0014771
-0.000203769
-0.00020317
0.00193805
-0.000231105
-0.000230595
0.00248589
-0.000273467
-0.000272943
0.00315125
-0.000333083
-0.000332457
0.00392244
-0.000385194
-0.000384404
0.00478122
-0.000429738
-0.000428698
0.00578591
-0.000502665
-0.000500603
0.00689952
-0.000558224
-0.000554625
0.00811554
-0.000610422
-0.000604433
0.0094154
-0.000654232
-0.000644449
0.0108116
-0.000705465
-0.000689879
0.0123186
-0.000763495
-0.000741562
0.0139372
-0.000825344
-0.00079293
0.0156928
-0.000896238
-0.000857552
-0.000977791
-0.000905375
0.0175776
2.24323e-07
1.14031e-05
-1.16217e-05
1.02229e-06
4.43845e-05
-4.51799e-05
2.70488e-06
9.76682e-05
-9.93423e-05
5.49362e-06
0.00017239
-0.000175176
1.02921e-05
0.000261239
-0.000266028
1.56027e-05
0.000366861
-0.000372167
2.25353e-05
0.000491784
-0.00049871
3.1125e-05
0.000644177
-0.000652757
4.03831e-05
0.000830475
-0.000839729
5.4832e-05
0.00105939
-0.00107382
7.05303e-05
0.00134316
-0.00135886
8.82388e-05
0.00169457
-0.00171226
0.00011284
0.00212698
-0.00215159
0.000139116
0.00266595
-0.00269222
0.000172984
0.00332923
-0.00336312
0.000211921
0.00415343
-0.00419236
0.000262954
0.00516764
-0.00521871
0.000320396
0.00642907
-0.00648651
0.000391246
0.00798298
-0.00805387
0.000475646
0.00989935
-0.00998376
0.00057471
0.0122292
-0.0123283
0.000689929
0.0150195
-0.0151348
0.0183129
-0.0184461
0.000823134
-3.43673e-07
-1.07594e-06
-1.75458e-06
-1.82932e-06
-1.52413e-06
2.39258e-06
6.42665e-06
1.38526e-05
2.54653e-05
3.73887e-05
5.4654e-05
7.74725e-05
0.000102256
0.000133953
0.000171752
0.000216076
0.000266803
0.000332355
0.00041008
0.000501613
0.000610052
0.000735508
0.000869245
2.54329e-07
1.28386e-05
-1.30375e-05
1.06587e-06
4.96154e-05
-5.03358e-05
2.57489e-06
0.000108404
-0.000109854
4.85368e-06
0.0001891
-0.000191298
6.95005e-06
0.000285027
-0.000287096
1.19113e-05
0.000395661
-0.00040056
1.67343e-05
0.000529465
-0.000534275
2.28355e-05
0.000690881
-0.000696928
2.87291e-05
0.000887791
-0.00089368
3.76245e-05
0.00112913
-0.00113798
5.00937e-05
0.00142579
-0.00143825
6.301e-05
0.00179463
-0.0018075
7.68716e-05
0.00225031
-0.00226417
9.54492e-05
0.00280994
-0.00282847
0.000119291
0.00350143
-0.00352527
0.00014373
0.00435832
-0.00438272
0.000174777
0.00541274
-0.00544378
0.000211413
0.00671511
-0.00675173
0.00025475
0.00832291
-0.00836624
0.000305252
0.0102972
-0.0103478
0.000361683
0.0126927
-0.0127491
0.000425432
0.015548
-0.0156117
0.018914
-0.0189861
0.000497451
2.62318e-07
1.26351e-05
1.09816e-06
4.88667e-05
2.72476e-06
0.00010684
5.10794e-06
0.000186794
8.38797e-06
0.000281783
1.25489e-05
0.00039156
1.65063e-05
0.000525526
2.42001e-05
0.000683242
3.21187e-05
0.000879884
4.17722e-05
0.00111953
5.16998e-05
0.00141586
6.56541e-05
0.00178073
8.39613e-05
0.002232
0.000103829
0.00279012
0.000125698
0.00347956
0.000153664
0.00433039
0.000186754
0.00537963
0.000225914
0.00667598
0.000271836
0.00827698
0.00032391
0.0102452
0.000386362
0.0126302
0.000457807
0.0154766
0.0188341
0.000537785
3.12803e-07
1.24146e-05
1.27164e-06
4.80434e-05
3.03566e-06
0.000105176
5.77634e-06
0.00018417
9.30581e-06
0.00027831
1.38562e-05
0.000387095
1.95912e-05
0.000519819
2.65854e-05
0.000676323
3.51841e-05
0.000871302
4.55637e-05
0.00110923
5.81409e-05
0.00140329
7.32989e-05
0.00176564
9.13201e-05
0.00221396
0.000111148
0.00277036
0.000138542
0.00345214
0.000168813
0.00430017
0.000202636
0.00534578
0.000244711
0.00663394
0.000292092
0.00822958
0.000349386
0.0101879
0.000414885
0.0125647
0.000488362
0.0154031
0.0187551
0.000567364
3.36172e-07
1.21585e-05
1.3504e-06
4.71365e-05
3.26658e-06
0.000103351
6.22509e-06
0.000181303
1.00492e-05
0.000274543
1.50979e-05
0.000382115
2.24733e-05
0.000512479
2.8945e-05
0.000669914
3.82256e-05
0.000862048
4.95196e-05
0.00109799
6.32134e-05
0.00138962
7.96932e-05
0.00174923
9.75402e-05
0.00219612
0.000122821
0.00274515
0.000148791
0.00342617
0.000181878
0.00426715
0.000222672
0.00530498
0.000266437
0.0065902
0.000320284
0.00817572
0.00038328
0.0101249
0.000456325
0.0124917
0.000538352
0.0153211
0.0186581
0.000635312
3.19351e-07
1.18966e-05
1.3674e-06
4.61661e-05
3.35573e-06
0.000101426
6.35326e-06
0.000178375
1.14198e-05
0.000269517
1.56692e-05
0.000377924
2.23607e-05
0.000505808
3.05763e-05
0.000661756
4.05769e-05
0.000852059
5.29804e-05
0.00108565
6.76358e-05
0.00137496
8.53279e-05
0.0017316
0.000106683
0.00217475
0.000132083
0.00271981
0.000162207
0.00339602
0.000198154
0.00423126
0.000238587
0.00526452
0.000288548
0.00654029
0.000347029
0.00811721
0.00041602
0.0100559
0.000493331
0.0124143
0.000583853
0.0152306
0.0185568
0.00068517
2.83821e-07
1.2667e-06
3.36719e-06
6.56219e-06
1.00729e-05
1.58312e-05
2.29496e-05
3.19584e-05
4.43111e-05
5.61628e-05
7.22916e-05
9.16616e-05
0.000114838
0.000142475
0.000175397
0.00021433
0.000260156
0.000313936
0.000377277
0.000449346
0.000535267
0.00063103
0.000741717
2.58353e-07
-1.32255e-05
1.03211e-06
-5.09921e-05
2.41813e-06
-0.000111172
3.80856e-06
-0.00019259
7.3848e-06
-0.000290644
1.10492e-05
-0.000404157
1.55184e-05
-0.000538737
1.98776e-05
-0.000701235
2.80211e-05
-0.000901825
3.6388e-05
-0.0011463
4.47783e-05
-0.00144665
5.69256e-05
-0.00181961
7.1535e-05
-0.00227879
8.88477e-05
-0.00284575
0.000109425
-0.00354585
0.000134005
-0.00440727
0.000163041
-0.00547281
0.000195508
-0.00678417
0.000236176
-0.00840691
0.000284027
-0.0103956
0.000339372
-0.0128045
0.000402792
-0.0156752
-0.0190598
0.000476564
-1.43964e-05
2.64909e-05
-3.69298e-05
6.99146e-05
-4.89616e-05
0.000116163
-6.10115e-05
0.000191392
-8.78525e-05
0.000296097
-0.000111667
0.000395804
-0.000131144
0.000513936
-0.000146542
0.0006583
-0.000157862
0.000835956
-0.000164899
0.00105446
-0.0001842
0.00134326
-0.000192387
0.00167451
-0.000188122
0.00208329
-0.000182812
0.0026072
-0.000166294
0.00324392
-0.000105391
0.00399678
-5.74591e-06
0.004951
0.00011136
0.00615901
0.000292189
0.00761759
0.00049316
0.00947271
0.000732857
0.0117269
0.000961127
0.0144865
0.0177581
0.00117911
1.84003e-07
8.45094e-07
2.07763e-06
4.69476e-06
6.36946e-06
9.70022e-06
1.39219e-05
2.04112e-05
2.54155e-05
3.31215e-05
4.40843e-05
5.54177e-05
6.70973e-05
8.32308e-05
0.000102506
0.000125409
0.000150507
0.000184333
0.000220122
0.0002645
0.000315027
0.000369748
0.000427628
8.87982e-08
1.44791e-05
-1.45541e-05
4.10685e-07
5.60322e-05
-5.63369e-05
1.08688e-06
0.00012158
-0.00012224
3.04271e-06
0.000208511
-0.000210453
3.50427e-06
0.000312358
-0.00031281
5.2288e-06
0.000430924
-0.000432639
7.58323e-06
0.000573803
-0.000576151
1.03787e-05
0.000744456
-0.000747244
1.39137e-05
0.000955051
-0.000958581
1.82142e-05
0.00120963
-0.00121392
2.32963e-05
0.00152517
-0.00153025
2.78906e-05
0.0019145
-0.00191908
3.71512e-05
0.00239095
-0.00240022
4.51143e-05
0.00298072
-0.00298867
5.71664e-05
0.0037065
-0.00371855
7.01399e-05
0.00460087
-0.00461383
8.57056e-05
0.00570233
-0.0057179
0.000103945
0.00706034
-0.00707857
0.000124209
0.00873649
-0.00875676
0.000150664
0.0107815
-0.0108079
0.000183199
0.0132527
-0.0132853
0.00021905
0.0161898
-0.0162257
0.0196514
-0.0196976
0.000265253
3.01502e-07
-1.36993e-05
6.43764e-07
-5.27615e-05
1.90444e-06
-0.000114846
3.70774e-06
-0.000198103
6.12261e-06
-0.000298214
1.0335e-05
-0.00041381
1.43024e-05
-0.000550983
1.77037e-05
-0.000716105
2.48772e-05
-0.000920241
3.05785e-05
-0.00116712
3.88763e-05
-0.00147503
4.9231e-05
-0.00185211
6.14837e-05
-0.00231582
7.61185e-05
-0.00289225
9.35292e-05
-0.00359931
0.000112472
-0.00447308
0.00013723
-0.00554908
0.000168692
-0.00687897
0.000201952
-0.00851537
0.000243356
-0.0105235
0.000288723
-0.0129528
0.000345067
-0.0158457
-0.0192531
0.000411631
1.56774e-07
-1.38567e-05
7.20944e-07
-5.33298e-05
1.73381e-06
-0.000115859
3.39347e-06
-0.000199767
5.56284e-06
-0.00030038
8.45326e-06
-0.000416702
1.19711e-05
-0.000554496
1.62842e-05
-0.000720417
2.02369e-05
-0.000924187
2.81329e-05
-0.00117501
3.59923e-05
-0.00148288
4.37783e-05
-0.00185988
5.68127e-05
-0.00232884
7.03548e-05
-0.00290578
8.64977e-05
-0.00361543
0.000105839
-0.00449241
0.00012884
-0.00557207
0.000154348
-0.00690447
0.000184754
-0.00854577
0.000224049
-0.0105628
0.000267579
-0.0129963
0.00031728
-0.0158954
-0.0193098
0.000373987
1.65561e-07
-1.39959e-05
6.92128e-07
-5.38213e-05
1.72208e-06
-0.000116859
3.28436e-06
-0.0002013
5.37012e-06
-0.000302449
8.02335e-06
-0.000419335
1.00625e-05
-0.000556525
1.56591e-05
-0.000725996
2.05045e-05
-0.000929027
2.6657e-05
-0.00118115
3.24818e-05
-0.0014887
4.29203e-05
-0.00187031
5.36026e-05
-0.00233952
6.46011e-05
-0.00291676
7.99653e-05
-0.0036308
9.81327e-05
-0.00451056
0.000119913
-0.00559386
0.000145704
-0.00693026
0.000176671
-0.00857674
0.00021291
-0.0105991
0.000255904
-0.0130394
0.000300776
-0.0159403
-0.0193632
0.000354136
1.30667e-07
-1.41046e-05
6.36385e-07
-5.42918e-05
1.67054e-06
-0.000117871
3.19341e-06
-0.000202792
5.18477e-06
-0.000304427
6.56928e-06
-0.000420695
1.09922e-05
-0.00056094
1.47339e-05
-0.000729716
1.96382e-05
-0.000933926
2.53606e-05
-0.00118685
3.23757e-05
-0.00149571
4.0718e-05
-0.00187863
4.91266e-05
-0.00234793
6.3047e-05
-0.00293066
7.56843e-05
-0.00364342
9.31217e-05
-0.00452799
0.000113785
-0.0056145
0.000138775
-0.00695525
0.000168568
-0.00860652
0.000203857
-0.0106344
0.000242012
-0.0130775
0.000290656
-0.0159889
-0.0194162
0.000343739
4.27724e-08
-1.41167e-05
8.10556e-07
-5.50092e-05
1.15099e-06
-0.00011818
3.30372e-06
-0.000204903
4.16102e-06
-0.000305269
7.51793e-06
-0.000424023
1.03174e-05
-0.000563733
1.25488e-05
-0.000731924
1.81168e-05
-0.000939492
2.19189e-05
-0.00119063
2.99303e-05
-0.00150372
3.60276e-05
-0.00188471
4.70388e-05
-0.00235895
5.64151e-05
-0.00294003
7.17482e-05
-0.00365877
8.5801e-05
-0.00454204
0.000105156
-0.00563386
0.000125996
-0.00697612
0.000155811
-0.00863632
0.000185335
-0.010664
0.000221944
-0.0131141
0.000263948
-0.016031
-0.0194681
0.000315873
2.11611e-07
-1.43218e-05
3.40215e-07
-5.51246e-05
1.63331e-06
-0.00011947
2.80814e-06
-0.000206068
4.3414e-06
-0.000306804
6.34799e-06
-0.000426022
7.73107e-06
-0.000565121
1.22473e-05
-0.000736433
1.48208e-05
-0.000942072
2.11337e-05
-0.00119694
2.54922e-05
-0.00150809
3.2692e-05
-0.0018919
4.13495e-05
-0.00236762
5.17702e-05
-0.00295043
6.42565e-05
-0.00367126
7.93728e-05
-0.00455715
9.73958e-05
-0.00565189
0.000119483
-0.00699821
0.000141726
-0.00865857
0.000171078
-0.0106933
0.000207875
-0.0131509
0.000242945
-0.0160661
-0.0195067
0.000281452
1.20369e-07
-1.44391e-05
4.58918e-07
-5.54573e-05
5.9898e-07
-0.00011961
1.64791e-06
-0.000207113
3.1846e-06
-0.000308343
5.21307e-06
-0.000428047
8.8595e-06
-0.000568773
1.07614e-05
-0.000738331
1.46212e-05
-0.000945938
1.94831e-05
-0.0012018
2.52358e-05
-0.00151385
3.40256e-05
-0.00190068
4.07343e-05
-0.00237434
5.11875e-05
-0.00296088
6.35592e-05
-0.00368366
7.84462e-05
-0.00457203
9.48802e-05
-0.00566836
0.000117968
-0.00702128
0.000141181
-0.00868182
0.000172819
-0.0107249
0.000203825
-0.0131819
0.00024853
-0.0161109
-0.019556
0.000297794
6.78251e-08
-1.45051e-05
3.88329e-07
-5.57794e-05
1.63424e-06
-0.000120851
1.97301e-06
-0.000207453
4.39349e-06
-0.000310757
5.24459e-06
-0.000428898
7.86368e-06
-0.000571385
1.09984e-05
-0.000741463
1.64158e-05
-0.000951349
1.96151e-05
-0.00120499
2.53346e-05
-0.00151957
3.23952e-05
-0.00190774
4.10213e-05
-0.00238296
5.10807e-05
-0.00297095
6.1459e-05
-0.00369404
7.82284e-05
-0.0045888
9.53805e-05
-0.00568553
0.000114276
-0.00704018
0.000143042
-0.00871061
0.000170651
-0.0107526
0.000207166
-0.0132185
0.0002459
-0.0161496
-0.0196054
0.000295245
-1.41092e-08
2.56147e-07
9.98934e-07
2.07294e-06
3.68221e-06
5.72127e-06
8.14518e-06
1.11488e-05
1.48542e-05
1.94984e-05
2.51056e-05
3.18691e-05
3.98658e-05
4.96446e-05
6.21156e-05
7.41717e-05
9.09873e-05
0.00011112
0.000137016
0.000165857
0.000200095
0.000240279
0.000286321
1.51794e-07
-1.59584e-05
1.58422e-05
3.43616e-07
-6.13478e-05
6.11997e-05
1.32488e-07
-0.000131862
0.000132109
1.4681e-06
-0.000225697
0.000224391
2.17486e-06
-0.000333499
0.00033281
3.05698e-06
-0.000458905
0.000458038
2.87613e-06
-0.000606949
0.000607138
5.5482e-06
-0.000788932
0.000786268
5.78304e-06
-0.00100546
0.00100523
9.34686e-06
-0.00127546
0.0012719
1.15983e-05
-0.00160585
0.0016036
1.33681e-05
-0.00200898
0.00200721
1.71685e-05
-0.00251022
0.00250642
2.18241e-05
-0.00312442
0.00311977
2.75293e-05
-0.00388141
0.0038757
3.45492e-05
-0.00481356
0.00480654
4.48486e-05
-0.00596197
0.00595168
5.56128e-05
-0.00737425
0.00736348
7.05499e-05
-0.00911517
0.00910024
8.67178e-05
-0.0112407
0.0112245
0.000104295
-0.0138005
0.0137829
0.000126003
-0.0168491
0.0168274
-0.0204341
0.0204052
0.000154947
3.28285e-08
-1.60213e-05
2.0705e-07
-6.15538e-05
1.09995e-06
-0.000132787
7.75114e-07
-0.000225393
1.39343e-06
-0.000334134
2.20429e-06
-0.000459725
3.24796e-06
-0.000608001
4.56231e-06
-0.000790252
7.62936e-06
-0.00100854
9.39478e-06
-0.00127723
1.05907e-05
-0.00160705
1.49677e-05
-0.00201336
1.86842e-05
-0.00251394
2.32353e-05
-0.00312898
2.88255e-05
-0.003887
3.57059e-05
-0.00482044
4.25952e-05
-0.00596887
5.47455e-05
-0.0073864
6.55673e-05
-0.009126
8.12858e-05
-0.0112564
0.000102178
-0.0138214
0.000125319
-0.0168722
-0.0204618
0.000153007
1.25961e-07
-1.46618e-05
5.55126e-07
-5.67391e-05
1.29298e-06
-0.000122959
2.36448e-06
-0.000211503
3.7335e-06
-0.000314169
5.55201e-06
-0.000434442
7.6067e-06
-0.000578201
1.03716e-05
-0.000749997
1.22669e-05
-0.000960473
1.76099e-05
-0.00121925
2.25127e-05
-0.00153515
2.88135e-05
-0.00192537
3.39247e-05
-0.00240532
4.38848e-05
-0.00299862
5.2206e-05
-0.00372687
6.44843e-05
-0.0046261
8.08096e-05
-0.00573422
9.86133e-05
-0.00709635
0.000119919
-0.00877806
0.000146794
-0.0108348
0.000172169
-0.0133107
0.00020795
-0.0162616
-0.0197345
0.000244854
2.40672e-07
-1.48839e-05
6.74457e-07
-5.71506e-05
1.43348e-06
-0.000123696
1.6525e-06
-0.000211705
4.03161e-06
-0.000316534
5.73492e-06
-0.000436135
7.96271e-06
-0.000580418
1.05699e-05
-0.000752596
1.37326e-05
-0.000963628
1.73317e-05
-0.00122285
2.21101e-05
-0.00153992
2.78742e-05
-0.00193113
3.46764e-05
-0.00241212
4.10874e-05
-0.00300503
5.2864e-05
-0.00373864
6.43784e-05
-0.00463762
7.87925e-05
-0.00574862
9.61338e-05
-0.00711371
0.000117041
-0.00879895
0.000141949
-0.0108597
0.000173264
-0.013342
0.000209108
-0.0162974
-0.0197767
0.000251338
1.03503e-07
-1.49632e-05
4.58014e-07
-5.74733e-05
1.17863e-06
-0.00012439
2.35468e-06
-0.000212856
2.4157e-06
-0.000316579
4.7419e-06
-0.000438445
7.55537e-06
-0.000583222
9.43153e-06
-0.00075446
1.2689e-05
-0.000966879
1.48421e-05
-0.00122499
2.05296e-05
-0.0015456
2.46277e-05
-0.00193522
3.24912e-05
-0.00241998
4.21803e-05
-0.00301471
4.98356e-05
-0.00374629
6.12769e-05
-0.00464906
7.50239e-05
-0.00576236
9.15212e-05
-0.00713022
0.000111293
-0.00881871
0.000134177
-0.0108826
0.000161559
-0.0133693
0.000193151
-0.0163289
-0.0198136
0.000230063
-4.67127e-08
-1.48955e-05
5.53402e-07
-5.80432e-05
7.31753e-07
-0.000124546
2.4609e-06
-0.000214561
3.67705e-06
-0.000317783
4.96035e-06
-0.000439711
5.87444e-06
-0.000584128
9.24598e-06
-0.000757817
1.09677e-05
-0.000968595
1.71508e-05
-0.00123116
1.85324e-05
-0.00154698
2.49527e-05
-0.00194163
2.98145e-05
-0.00242484
3.73451e-05
-0.00302224
4.78995e-05
-0.00375684
5.88843e-05
-0.00466004
7.21277e-05
-0.0057756
8.81135e-05
-0.0071462
0.000106907
-0.0088375
0.000129819
-0.0109055
0.000158731
-0.0133982
0.000191169
-0.0163613
-0.0198521
0.000229719
2.12548e-07
-1.50812e-05
2.29345e-07
-5.802e-05
1.3659e-06
-0.000125655
7.77436e-07
-0.000213941
2.6355e-06
-0.000319627
4.31066e-06
-0.000441365
5.75992e-06
-0.000585569
8.22006e-06
-0.000760262
1.20004e-05
-0.000972371
1.37443e-05
-0.00123289
1.93196e-05
-0.00155255
2.41777e-05
-0.00194648
2.83202e-05
-0.00242898
3.54363e-05
-0.00302935
4.40517e-05
-0.00376545
5.44717e-05
-0.00467046
6.66463e-05
-0.00578777
8.19111e-05
-0.00716146
0.000100353
-0.00885593
0.00012241
-0.0109275
0.00014829
-0.0134241
0.000179975
-0.016393
-0.019892
0.000219918
8.09726e-08
-1.51467e-05
3.76291e-07
-5.82914e-05
4.42609e-07
-0.000125706
1.8016e-06
-0.000215281
3.03507e-06
-0.000320853
4.0843e-06
-0.000442402
5.99878e-06
-0.000587481
7.74236e-06
-0.000761996
1.02624e-05
-0.000974889
1.21525e-05
-0.00123477
1.71587e-05
-0.00155756
2.17718e-05
-0.00195109
2.91158e-05
-0.00243632
3.55379e-05
-0.00303576
4.23159e-05
-0.00377222
5.37799e-05
-0.00468192
6.42844e-05
-0.00579827
8.05178e-05
-0.00717769
9.82216e-05
-0.00887363
0.000117278
-0.0109466
0.000142683
-0.0134495
0.000175288
-0.0164256
-0.0199273
0.00021052
1.2608e-07
-1.52589e-05
4.55e-07
-5.86007e-05
8.52902e-07
-0.00012609
1.82175e-06
-0.000216235
2.64059e-06
-0.000321665
3.03686e-06
-0.000442788
5.62255e-06
-0.000590062
7.62842e-06
-0.000763995
1.00908e-05
-0.000977348
1.31086e-05
-0.00123779
1.55401e-05
-0.00155998
2.00239e-05
-0.00195557
2.51073e-05
-0.0024414
3.35475e-05
-0.0030442
3.97045e-05
-0.00377838
5.13175e-05
-0.00469352
6.30346e-05
-0.00580998
7.67822e-05
-0.00719144
9.38814e-05
-0.00889072
0.000115938
-0.0109686
0.000140146
-0.0134736
0.000166781
-0.0164523
-0.0199625
0.00020207
1.93674e-07
-1.54426e-05
5.49892e-07
-5.89427e-05
6.59072e-07
-0.000126188
2.07743e-06
-0.000217641
2.32203e-06
-0.000321903
4.47119e-06
-0.000444929
5.06556e-06
-0.000590652
7.01963e-06
-0.000765941
9.42208e-06
-0.000979747
1.35739e-05
-0.00124193
1.71876e-05
-0.0015636
2.15802e-05
-0.00195995
2.69096e-05
-0.00244673
3.15726e-05
-0.00304885
4.27159e-05
-0.00378952
4.87415e-05
-0.00469955
6.17508e-05
-0.00582299
7.40613e-05
-0.00720375
9.25812e-05
-0.00890924
0.000112835
-0.0109889
0.000134996
-0.0134958
0.000166204
-0.0164835
-0.0199965
0.000200208
1.04622e-07
-1.55262e-05
4.16334e-07
-5.92233e-05
9.31454e-07
-0.000126681
1.69297e-06
-0.000218378
3.47457e-06
-0.000323673
3.84824e-06
-0.000445286
6.38175e-06
-0.000593179
8.3013e-06
-0.000767849
1.06451e-05
-0.000982087
1.23252e-05
-0.0012436
1.70861e-05
-0.00156835
1.96869e-05
-0.00196255
2.66124e-05
-0.00245365
3.14862e-05
-0.00305372
4.05732e-05
-0.0037986
4.97901e-05
-0.00470876
5.89885e-05
-0.00583218
7.42411e-05
-0.00721901
9.08201e-05
-0.00892581
0.000110771
-0.0110088
0.000136662
-0.0135217
0.000163802
-0.0165106
-0.020032
0.000199277
5.04198e-08
-1.5562e-05
2.33702e-07
-5.93828e-05
6.54164e-07
-0.000127087
1.30904e-06
-0.000219013
2.21196e-06
-0.00032457
3.37872e-06
-0.000446439
4.81971e-06
-0.000594617
6.61681e-06
-0.000769636
8.82451e-06
-0.000984294
1.2748e-05
-0.00124752
1.32117e-05
-0.00156882
1.89277e-05
-0.00196826
2.38756e-05
-0.0024586
2.95216e-05
-0.00305936
3.53536e-05
-0.00380443
4.57219e-05
-0.00471912
5.65046e-05
-0.00584295
6.9709e-05
-0.00723221
8.57599e-05
-0.00894186
0.000104671
-0.0110277
0.000128064
-0.0135451
0.000156316
-0.0165388
-0.0200649
0.000189255
-7.21448e-08
-1.54684e-05
4.48966e-08
-5.94655e-05
9.94267e-07
-0.000128016
8.18071e-07
-0.00021881
2.61299e-06
-0.000326356
3.71931e-06
-0.000447528
3.82214e-06
-0.000594716
5.49928e-06
-0.000771301
7.57415e-06
-0.000986368
1.01577e-05
-0.00125009
1.49255e-05
-0.00157358
1.8827e-05
-0.00197216
2.18496e-05
-0.00246162
2.94402e-05
-0.00306695
3.611e-05
-0.0038111
4.46815e-05
-0.00472769
5.51751e-05
-0.00585344
6.80688e-05
-0.0072451
8.16914e-05
-0.00895547
0.000102874
-0.0110489
0.000125629
-0.0135678
0.000155622
-0.0165688
-0.0200987
0.000189459
6.66707e-08
-1.55215e-05
2.98758e-07
-5.96701e-05
1.20217e-06
-0.000128908
1.90265e-06
-0.000219488
9.74996e-07
-0.000325426
4.11047e-06
-0.000450649
4.5012e-06
-0.000595109
6.21782e-06
-0.000773007
8.31402e-06
-0.000988467
1.09011e-05
-0.00125267
1.37509e-05
-0.00157644
1.76577e-05
-0.00197606
2.24067e-05
-0.00246637
2.82048e-05
-0.00307274
3.52534e-05
-0.00381815
4.38141e-05
-0.00473625
5.62411e-05
-0.00586587
6.7006e-05
-0.00725586
8.42324e-05
-0.00897269
0.00010088
-0.0110656
0.00012361
-0.0135905
0.000151064
-0.0165962
-0.0201309
0.000183256
1.77131e-07
-1.56797e-05
4.24981e-07
-5.98857e-05
-1.69652e-07
-0.000128296
1.27623e-06
-0.000220909
2.89747e-06
-0.000327042
1.92866e-06
-0.000449665
5.52916e-06
-0.000598709
7.24289e-06
-0.000774712
7.88225e-06
-0.000989108
1.04233e-05
-0.00125521
1.51327e-05
-0.00158115
1.72818e-05
-0.00197821
2.36654e-05
-0.00247276
2.75552e-05
-0.00307664
3.63171e-05
-0.00382691
4.27959e-05
-0.00474273
5.26458e-05
-0.00587572
6.72416e-05
-0.00727046
8.25474e-05
-0.00898799
9.88945e-05
-0.0110819
0.000121238
-0.0136129
0.000149954
-0.0166249
-0.0201643
0.000183304
-1.46096e-07
-1.55257e-05
-1.83089e-09
-6.00132e-05
1.37237e-06
-0.000129665
1.16984e-06
-0.000220693
1.19874e-06
-0.000327071
3.13416e-06
-0.000451592
4.42363e-06
-0.000600001
6.04351e-06
-0.000776327
9.47987e-06
-0.000992549
1.04255e-05
-0.00125615
1.34354e-05
-0.00158416
1.71285e-05
-0.0019819
2.16519e-05
-0.00247728
2.71867e-05
-0.00308217
3.2074e-05
-0.0038318
4.37192e-05
-0.00475437
5.21797e-05
-0.00588417
6.41124e-05
-0.00728241
7.91861e-05
-0.00900306
0.000101318
-0.011104
0.000121343
-0.0136329
0.000146004
-0.0166496
-0.020196
0.000177757
1.6495e-07
-1.56817e-05
4.15052e-07
-6.02494e-05
3.00837e-07
-0.000129542
9.12849e-07
-0.000221295
3.50089e-06
-0.000329656
3.63973e-06
-0.000451725
3.62796e-06
-0.000599988
5.14694e-06
-0.000777842
7.05796e-06
-0.00099446
1.09665e-05
-0.00126006
1.23022e-05
-0.0015855
1.75593e-05
-0.00198715
2.16387e-05
-0.00248137
2.70718e-05
-0.0030876
3.36939e-05
-0.00383843
4.02273e-05
-0.00476091
5.16844e-05
-0.00589563
6.38066e-05
-0.00729454
7.65056e-05
-0.00901576
9.22574e-05
-0.0111198
0.000117917
-0.0136585
0.000143659
-0.0166754
-0.0202286
0.000176309
9.13289e-08
-1.5768e-05
6.41047e-07
-6.07891e-05
6.29419e-07
-0.000129527
2.02206e-06
-0.000222679
1.8046e-06
-0.000329437
3.68965e-06
-0.000453604
3.87363e-06
-0.000600172
5.3392e-06
-0.000779302
8.32337e-06
-0.000997445
1.0625e-05
-0.00126236
1.21753e-05
-0.00158705
1.53173e-05
-0.00199029
1.99243e-05
-0.00248597
2.66138e-05
-0.00309429
3.30548e-05
-0.00384487
3.89873e-05
-0.00476684
4.86015e-05
-0.00590525
6.04422e-05
-0.00730639
7.66236e-05
-0.00903195
9.42495e-05
-0.0111375
0.000115303
-0.0136796
0.000143353
-0.0167034
-0.0202544
0.000169147
1.70895e-07
-1.59293e-05
1.69186e-07
-6.07754e-05
1.0484e-06
-0.000130395
1.0274e-06
-0.00022265
1.76551e-06
-0.000330168
2.70753e-06
-0.000454541
3.91482e-06
-0.000601375
6.51665e-06
-0.000781901
7.2504e-06
-0.000998176
9.56663e-06
-0.00126467
1.37003e-05
-0.00159118
1.58774e-05
-0.00199247
1.9839e-05
-0.00248993
2.54669e-05
-0.00309992
3.19467e-05
-0.00385135
4.1392e-05
-0.0047763
5.27066e-05
-0.00591656
6.26497e-05
-0.00731634
7.56211e-05
-0.00904492
9.52522e-05
-0.0111571
0.000117029
-0.0137014
0.000141083
-0.0167275
-0.0202857
0.00017233
4.77079e-08
-1.59794e-05
2.01638e-07
-6.09352e-05
5.43929e-07
-0.000130739
1.744e-06
-0.000223856
1.68485e-06
-0.000330109
2.61216e-06
-0.000455473
4.82077e-06
-0.000603582
5.25401e-06
-0.000782338
7.11798e-06
-0.00100004
9.39794e-06
-0.00126695
1.2225e-05
-0.00159401
1.70547e-05
-0.0019973
1.99528e-05
-0.00249283
2.66399e-05
-0.00310661
3.12213e-05
-0.00385593
3.90605e-05
-0.00478415
4.8687e-05
-0.00592619
6.25306e-05
-0.0073302
7.66663e-05
-0.00905905
9.43777e-05
-0.0111748
0.000115945
-0.0137229
0.000139848
-0.0167514
-0.0203193
0.000173491
-5.54156e-08
-1.5925e-05
5.97199e-08
-6.10544e-05
3.50698e-07
-0.00013103
8.21197e-07
-0.00022433
2.29647e-06
-0.000331583
3.19624e-06
-0.000456375
3.35009e-06
-0.000603734
5.8822e-06
-0.000784871
7.67294e-06
-0.00100183
8.36034e-06
-0.00126764
1.26644e-05
-0.00159831
1.60395e-05
-0.00200068
2.01915e-05
-0.00249698
2.34892e-05
-0.00310991
3.15444e-05
-0.00386399
3.91378e-05
-0.00479174
4.64619e-05
-0.00593351
5.94954e-05
-0.00734325
7.34622e-05
-0.00907302
9.04264e-05
-0.0111918
0.00010868
-0.0137412
0.000135001
-0.0167777
-0.02035
0.000165677
9.21108e-08
-1.60204e-05
1.76749e-07
-6.11444e-05
4.41995e-07
-0.000131299
4.71288e-08
-0.00022394
6.41126e-07
-0.000332179
1.68772e-06
-0.000457423
3.79412e-06
-0.000605842
4.10299e-06
-0.000785178
5.55832e-06
-0.00100329
9.22412e-06
-0.0012713
1.03159e-05
-0.00159941
1.36274e-05
-0.00200398
1.90933e-05
-0.00250246
2.26447e-05
-0.00311345
3.02434e-05
-0.00387159
3.77373e-05
-0.00479923
4.69028e-05
-0.00594268
5.44396e-05
-0.0073508
7.18914e-05
-0.00909047
8.63579e-05
-0.0112063
0.000108048
-0.0137629
0.000131783
-0.0168014
-0.0203748
0.000156593
-1.65445e-07
-8.94907e-08
7.32492e-07
1.20215e-06
1.83824e-06
2.46616e-06
3.76306e-06
4.86275e-06
6.8078e-06
7.40869e-06
1.16002e-05
1.48348e-05
1.87975e-05
2.51165e-05
2.92251e-05
3.65308e-05
4.55261e-05
5.82102e-05
6.79751e-05
8.61843e-05
0.000106198
0.000132208
0.000162591
3.89452e-08
-1.7432e-05
1.74054e-05
1.9106e-07
-6.72203e-05
6.70884e-05
4.3648e-07
-0.000143152
0.000142918
7.9317e-07
-0.000242343
0.000242004
1.19509e-06
-0.000354477
0.000354079
2.79316e-06
-0.000487682
0.000486099
2.31413e-06
-0.000642824
0.000643304
4.37982e-06
-0.00083112
0.00082907
4.04864e-06
-0.00106043
0.00106076
5.2819e-06
-0.00134181
0.00134059
6.78373e-06
-0.00168664
0.00168513
8.6722e-06
-0.00211316
0.00211128
1.09844e-05
-0.00263531
0.00263299
1.38597e-05
-0.00327889
0.00327603
1.739e-05
-0.00407364
0.00407011
2.17491e-05
-0.00504979
0.00504544
2.69741e-05
-0.00625146
0.00624623
3.37806e-05
-0.00773363
0.00772682
4.40281e-05
-0.00955994
0.00954968
5.29125e-05
-0.0117958
0.0117869
6.84087e-05
-0.0145015
0.014486
8.46573e-05
-0.0177161
0.0176999
-0.0214607
0.0214474
9.79687e-05
5.28432e-08
-1.74655e-05
-1.73646e-07
-6.69671e-05
-4.20017e-08
-0.000143263
2.09698e-07
-0.000242573
6.08142e-07
-0.000354863
1.15762e-06
-0.000488215
1.81627e-06
-0.000643474
2.65707e-06
-0.000831947
3.6923e-06
-0.00106146
4.9629e-06
-0.00134307
6.52188e-06
-0.0016882
8.44127e-06
-0.00211507
1.07885e-05
-0.00263766
1.52195e-05
-0.00328332
1.70933e-05
-0.00407552
2.1476e-05
-0.00505418
2.70105e-05
-0.00625701
3.36827e-05
-0.00774031
4.2323e-05
-0.00956861
5.34693e-05
-0.0118069
6.75446e-05
-0.0145156
8.28014e-05
-0.0177313
-0.0214845
0.000106588
4.40458e-08
-1.74924e-05
-1.60017e-07
-6.67366e-05
4.82094e-07
-0.000143888
4.7155e-08
-0.000242116
2.23706e-06
-0.000357044
1.74008e-06
-0.000487702
1.30535e-06
-0.000643034
3.27717e-06
-0.000833906
4.29268e-06
-0.00106248
5.55328e-06
-0.00134431