/*--------------------------------*- C++ -*----------------------------------*\
  =========                 |
  \\      /  F ield         | OpenFOAM: The Open Source CFD Toolbox
   \\    /   O peration     | Website:  https://openfoam.org
    \\  /    A nd           | Version:  10
     \\/     M anipulation  |
\*---------------------------------------------------------------------------*/
FoamFile
{
    format      ascii;
    class       volVectorField;
    location    "200";
    object      U;
}
// * * * * * * * * * * * * * * * * * * * * * * * * * * * * * * * * * * * * * //

dimensions      [0 1 -1 0 0 0 0];

internalField   nonuniform List<vector> 
96890
(
(1.3265 -0.178608 2.65661e-23)
(4.28411 -0.577983 -9.31069e-23)
(7.76859 -1.04953 9.16534e-23)
(11.2319 -1.51541 1.56674e-22)
(14.0561 -1.89512 -5.11464e-19)
(16.2775 -2.19332 4.05373e-19)
(18.0895 -2.4349 3.35223e-19)
(19.6297 -2.63931 -2.88971e-19)
(20.9919 -2.81906 4.92394e-22)
(22.2358 -2.98151 2.34681e-19)
(23.3967 -3.13168 -2.18325e-19)
(24.4978 -3.27246 2.04371e-19)
(25.5558 -3.40595 -1.88161e-19)
(26.5842 -3.53319 -1.78342e-19)
(27.5919 -3.65578 1.66827e-19)
(28.5833 -3.77326 1.48633e-19)
(29.5617 -3.88625 -1.42181e-19)
(30.5387 -3.99509 0)
(31.521 -4.10031 0)
(32.4768 -4.19682 -1.03635e-19)
(33.3266 -4.27239 7.38323e-20)
(33.9874 -4.32116 -8.88783e-21)
(34.4276 -4.31758 3.15263e-20)
(1.89663 -0.0673789 2.62902e-19)
(6.04905 -0.214791 -4.30419e-19)
(10.7179 -0.380642 4.19641e-19)
(14.9563 -0.531345 7.97663e-23)
(18.2296 -0.647799 -2.6769e-19)
(20.7744 -0.738509 0)
(22.8306 -0.811965 0)
(24.5617 -0.873834 -1.57297e-22)
(26.0824 -0.928207 1.45741e-19)
(27.4618 -0.977579 5.13421e-22)
(28.7408 -1.02322 -1.27907e-19)
(29.9478 -1.06631 -4.65259e-22)
(31.104 -1.10739 1.12079e-19)
(32.2257 -1.14706 -1.03753e-19)
(33.3244 -1.18576 -6.95925e-24)
(34.4067 -1.22367 0)
(35.47 -1.26067 -2.45265e-21)
(36.476 -1.29582 2.10773e-21)
(37.3087 -1.32645 6.99499e-21)
(37.885 -1.3502 4.57907e-20)
(38.3143 -1.37082 -4.87777e-20)
(38.7298 -1.38875 8.66043e-21)
(39.31 -1.42006 0)
(1.8938 -0.0656574 -5.28439e-19)
(6.0386 -0.209497 8.33352e-25)
(10.6998 -0.371273 4.21503e-19)
(14.9348 -0.518358 -3.44466e-19)
(18.2082 -0.63216 5.38172e-19)
(20.7567 -0.720953 -4.34883e-19)
(22.817 -0.792708 8.16526e-24)
(24.552 -0.853159 9.23776e-24)
(26.0743 -0.90626 1.05531e-23)
(27.4552 -0.954439 2.71009e-19)
(28.7366 -0.999034 -2.52764e-19)
(29.9462 -1.04114 2.22631e-23)
(31.1051 -1.08128 2.23816e-19)
(32.2291 -1.12004 -1.05159e-19)
(33.3292 -1.15774 3.00872e-21)
(34.4124 -1.19468 8.75809e-20)
(35.4752 -1.23064 2.38357e-21)
(36.4764 -1.26465 -5.81362e-23)
(37.2996 -1.2942 -5.92385e-20)
(37.8701 -1.31711 0)
(38.2984 -1.33688 4.86123e-21)
(38.7165 -1.35471 -3.46878e-20)
(39.2977 -1.38653 3.1315e-20)
(1.19447 -0.168109 0)
(3.80595 -0.536463 -8.23532e-21)
(6.84953 -0.964959 3.25557e-19)
(9.92908 -1.39888 0)
(12.4595 -1.75724 -4.13541e-22)
(14.4403 -2.04071 6.74723e-19)
(16.0683 -2.27437 -5.56993e-19)
(17.4761 -2.47702 -4.80353e-19)
(18.7415 -2.65807 8.58577e-19)
(19.9131 -2.82396 -3.9239e-19)
(21.0211 -2.97882 0)
(22.0872 -3.12424 -1.3074e-21)
(23.1279 -3.26215 -3.18279e-19)
(24.1568 -3.38918 3.06489e-19)
(25.179 -3.5141 -4.59871e-21)
(26.2034 -3.62155 -4.25164e-21)
(27.2191 -3.71561 1.50323e-20)
(28.2262 -3.79394 0)
(29.2401 -3.85609 0)
(30.2449 -3.89942 1.1011e-20)
(31.1809 -3.91301 0)
(31.9651 -3.88562 1.52408e-20)
(32.5478 -3.82448 -2.6113e-20)
(0.0300567 0.0105147 0)
(0.0717799 0.0288749 0)
(0.110569 0.0488102 0)
(0.125328 0.0690644 0)
(0.201286 0.0757299 0)
(0.318803 0.0729126 0)
(0.511916 0.0655424 0)
(0.734144 0.0578901 0)
(1.00722 0.050161 0)
(1.36279 0.0429085 0)
(1.76072 0.0364469 0)
(2.24242 0.030458 0)
(2.81107 0.0245962 0)
(3.46182 0.0192174 0)
(4.20448 0.0131291 0)
(5.04827 0.00643882 0)
(5.97657 -0.00114016 0)
(6.97931 -0.0100477 0)
(8.04692 -0.0217945 0)
(9.23651 -0.029553 0)
(10.474 -0.046127 0)
(11.7193 -0.0545269 0)
(13.4519 -0.0936124 0)
(1.13367 -0.157131 -8.34872e-23)
(3.68797 -0.511726 1.12196e-18)
(6.75583 -0.935977 8.92064e-24)
(9.92896 -1.37403 -1.02257e-18)
(12.581 -1.74 -3.80547e-22)
(14.6871 -2.02851 0)
(16.4213 -2.26431 5.18127e-22)
(17.9093 -2.46451 0)
(19.2372 -2.64117 7.55617e-22)
(20.4587 -2.80096 -6.8744e-22)
(21.6064 -2.94898 0)
(22.7032 -3.08704 -3.10825e-19)
(23.7652 -3.21748 2.89391e-19)
(24.8045 -3.34124 -4.22965e-21)
(25.8286 -3.45856 0)
(26.8414 -3.56907 2.3136e-19)
(27.8487 -3.67271 -2.18182e-19)
(28.8593 -3.76923 5.83683e-21)
(29.8745 -3.85803 5.35501e-22)
(30.8727 -3.93357 -4.74354e-22)
(31.7881 -3.98842 1.65293e-20)
(32.5345 -4.00073 1.24102e-19)
(33.0656 -3.98346 -9.56218e-20)
(1.12481 -0.156424 -3.56751e-24)
(3.65373 -0.509625 0)
(6.68629 -0.932433 1.23654e-18)
(9.82148 -1.36959 -1.07538e-18)
(12.4391 -1.73351 -8.37546e-19)
(14.5151 -2.02084 6.61084e-19)
(16.2295 -2.2565 5.4471e-19)
(17.7051 -2.45656 6.69846e-23)
(19.0246 -2.63345 -4.1735e-19)
(20.2412 -2.7932 7.55207e-22)
(21.3861 -2.94027 3.51129e-19)
(22.4803 -3.0771 -3.25743e-19)
(23.5397 -3.20548 0)
(24.575 -3.32613 2.85671e-19)
(25.5937 -3.43993 2.1172e-22)
(26.6007 -3.54691 -2.44172e-19)
(27.6006 -3.64767 -3.30938e-22)
(28.6042 -3.7405 -2.01518e-19)
(29.6157 -3.82514 1.68794e-19)
(30.6133 -3.89407 1.67358e-19)
(31.5326 -3.94165 -1.66563e-20)
(32.2879 -3.94912 -1.53163e-20)
(32.8342 -3.9202 -7.55212e-20)
(1.2798 -0.174329 1.24242e-22)
(4.13238 -0.563299 -2.07996e-22)
(7.50519 -1.0221 2.15246e-22)
(10.8956 -1.48296 0)
(13.676 -1.85974 2.94536e-22)
(15.8659 -2.15551 2.33003e-22)
(17.6559 -2.39636 0)
(19.1817 -2.59989 3.17634e-22)
(20.5349 -2.77911 0)
(21.7727 -2.94118 0)
(22.9292 -3.09107 -9.54636e-22)
(24.0284 -3.23145 -2.31038e-19)
(25.0877 -3.36434 2.17666e-19)
(26.1188 -3.49128 2.0481e-19)
(27.1301 -3.61288 -1.88498e-19)
(28.1262 -3.72936 -2.65188e-21)
(29.1107 -3.84059 -4.83878e-21)
(30.0943 -3.94774 -1.4306e-19)
(31.0832 -4.05041 1.19774e-19)
(32.0492 -4.14487 -1.1883e-19)
(32.9165 -4.21841 9.64831e-20)
(33.5999 -4.2621 4.5019e-22)
(34.0651 -4.27375 0)
(1.2602 -0.172059 -1.2987e-22)
(4.07232 -0.556406 -4.80693e-24)
(7.40342 -1.01058 4.9833e-24)
(10.7648 -1.46833 -1.98379e-22)
(13.53 -1.84387 -2.957e-22)
(15.7076 -2.1391 -2.33877e-22)
(17.4914 -2.37856 0)
(19.0116 -2.58186 -3.47801e-22)
(20.3607 -2.76054 -3.10321e-19)
(21.5962 -2.92242 2.82277e-19)
(22.7516 -3.07186 0)
(23.8505 -3.21175 -9.31511e-22)
(24.91 -3.34424 0)
(25.942 -3.47076 -1.62609e-21)
(26.9551 -3.5918 0)
(27.9533 -3.70741 2.90224e-21)
(28.9405 -3.81791 -5.29735e-21)
(29.927 -3.92391 4.78985e-21)
(30.9189 -4.02527 -8.5405e-21)
(31.8889 -4.11798 -1.09799e-19)
(32.7626 -4.19024 1.89043e-19)
(33.4543 -4.23056 -8.67138e-20)
(33.9274 -4.23738 1.92457e-20)
(1.23905 -0.169695 1.35791e-22)
(4.00748 -0.549334 1.11251e-22)
(7.29355 -0.998728 -1.15531e-22)
(10.6233 -1.45355 4.07439e-22)
(13.3706 -1.82773 -3.24439e-22)
(15.5364 -2.12204 0)
(17.3136 -2.36097 0)
(18.828 -2.5642 3.48479e-22)
(20.1728 -2.74204 -3.24671e-19)
(21.4056 -2.90366 2.95882e-19)
(22.5598 -3.05267 0)
(23.6584 -3.1923 -1.01897e-21)
(24.7182 -3.32439 0)
(25.7518 -3.45012 -1.77883e-21)
(26.7667 -3.57057 -2.06616e-19)
(27.767 -3.68524 1.87248e-19)
(28.7576 -3.79464 1.78943e-19)
(29.748 -3.89944 -3.1885e-19)
(30.7436 -3.99933 1.48538e-19)
(31.7186 -4.09032 0)
(32.5996 -4.16171 1.2938e-20)
(33.301 -4.20142 -9.06766e-20)
(33.7851 -4.21226 3.95517e-20)
(1.21556 -0.167022 -1.42035e-22)
(3.93645 -0.541227 0)
(7.17454 -0.985132 0)
(10.47 -1.43644 -8.7617e-19)
(13.1978 -1.80874 6.82778e-19)
(15.3508 -2.10168 0)
(17.1182 -2.33997 0)
(18.6275 -2.54242 0)
(19.969 -2.71974 0)
(21.1994 -2.88088 5.92268e-22)
(22.3522 -3.02931 1.14531e-21)
(23.4505 -3.16842 2.08782e-21)
(24.5113 -3.29973 -2.49716e-19)
(25.5463 -3.42471 2.34881e-19)
(26.5634 -3.54423 0)
(27.5665 -3.65755 1.99261e-19)
(28.5607 -3.76548 -1.82016e-19)
(29.5558 -3.86849 -5.26315e-21)
(30.556 -3.96602 0)
(31.5367 -4.05398 -1.28253e-19)
(32.4263 -4.12199 1.86859e-22)
(33.1395 -4.15399 9.60001e-20)
(33.6362 -4.16368 -6.18371e-20)
(1.18921 -0.163768 7.2613e-23)
(3.85664 -0.531686 -1.02101e-18)
(7.04112 -0.969475 -1.0716e-23)
(10.2993 -1.41626 9.20908e-19)
(13.0029 -1.78693 -7.17888e-19)
(15.1433 -2.07853 5.66563e-19)
(16.9022 -2.31588 0)
(18.4062 -2.51749 0)
(19.7444 -2.69468 7.14583e-22)
(20.9723 -2.85517 6.50557e-22)
(22.1237 -3.00305 -1.1476e-21)
(23.2218 -3.14158 -2.81125e-19)
(24.2835 -3.2721 2.61763e-19)
(25.3201 -3.39653 -2.44461e-19)
(26.3395 -3.51476 2.30541e-19)
(27.3456 -3.62694 0)
(28.344 -3.73331 -6.11479e-21)
(29.3442 -3.83425 -1.6742e-19)
(30.3492 -3.92933 1.63746e-19)
(31.3354 -4.01408 -1.34593e-19)
(32.233 -4.07927 1.16242e-19)
(32.9557 -4.10691 -2.506e-20)
(33.4616 -4.10746 1.08323e-19)
(1.16415 -0.161004 0)
(3.77985 -0.523081 6.043e-24)
(6.91034 -0.954972 0)
(10.129 -1.39868 0)
(12.8087 -1.76653 -7.56081e-19)
(14.9337 -2.05608 5.96266e-19)
(16.6804 -2.29302 0)
(18.1762 -2.49329 0)
(19.5085 -2.66997 -1.4669e-21)
(20.7332 -2.82958 -3.41684e-19)
(21.8833 -2.97686 3.15547e-19)
(22.9807 -3.11468 -2.92873e-19)
(24.0427 -3.24427 2.7483e-19)
(25.0805 -3.36774 2.58755e-19)
(26.1019 -3.48462 -2.41965e-19)
(27.1107 -3.59546 -2.19683e-19)
(28.113 -3.70007 2.06897e-19)
(29.1177 -3.79917 -1.87347e-19)
(30.1271 -3.89193 5.2696e-22)
(31.119 -3.97361 1.32574e-19)
(32.0249 -4.03585 1.22102e-19)
(32.7589 -4.05943 -8.88176e-22)
(33.2776 -4.06201 -1.13143e-19)
(1.29963 -0.176518 -4.86865e-19)
(4.19173 -0.569697 2.29892e-24)
(7.60354 -1.03256 8.40597e-19)
(11.0175 -1.49494 7.20889e-19)
(13.8114 -1.87263 -1.12402e-18)
(16.0135 -2.16972 4.44914e-19)
(17.8122 -2.41103 0)
(19.3421 -2.61485 3.16784e-19)
(20.6977 -2.79411 2.7294e-23)
(21.9373 -2.95666 -5.15106e-19)
(23.0953 -3.10673 4.77325e-19)
(24.1951 -3.24727 -8.48321e-22)
(25.2538 -3.38056 -2.07645e-19)
(26.2837 -3.50778 1.48299e-21)
(27.2937 -3.6298 0)
(28.2878 -3.74698 1.70761e-19)
(29.2698 -3.85892 -1.41602e-19)
(30.2507 -3.96701 1.36694e-19)
(31.2368 -4.07094 -2.36045e-19)
(32.1989 -4.16662 1.06785e-19)
(33.0598 -4.24091 1.12959e-20)
(33.7353 -4.28685 1.01714e-20)
(34.1937 -4.29637 -6.86431e-20)
(1.32021 -0.145257 0)
(4.24958 -0.508649 -8.73088e-25)
(7.56592 -0.909056 -1.21821e-20)
(10.7363 -1.31572 -7.14338e-23)
(13.2788 -1.68305 1.72494e-20)
(15.2242 -1.9885 0)
(16.7829 -2.24122 -1.90954e-20)
(18.1054 -2.45974 2.08204e-20)
(19.2819 -2.65499 -4.57941e-23)
(20.3691 -2.83575 2.89765e-20)
(21.4054 -3.01119 -3.70684e-20)
(22.4028 -3.18211 -1.72533e-22)
(23.3655 -3.36151 8.84467e-20)
(24.2946 -3.57008 -3.16799e-19)
(25.2176 -3.62952 3.53112e-21)
(26.0549 -3.75193 2.31638e-19)
(26.9303 -3.82734 -2.59583e-19)
(27.8805 -3.863 2.38373e-19)
(28.8606 -3.88028 -2.12393e-19)
(29.8539 -3.85791 -1.9805e-19)
(30.7909 -3.81738 1.60913e-19)
(31.5898 -3.74019 0)
(32.1987 -3.6284 0)
(1.31544 -0.177964 5.81717e-23)
(4.24052 -0.574123 1.90343e-22)
(7.68635 -1.03957 8.03765e-19)
(11.1235 -1.50431 -6.88303e-19)
(13.9327 -1.88308 -2.67822e-22)
(16.1466 -2.18007 0)
(17.9531 -2.42189 0)
(19.4879 -2.62613 -3.02004e-22)
(20.847 -2.80563 2.69877e-19)
(22.0893 -2.96806 -2.45647e-19)
(23.2486 -3.11834 -2.27693e-19)
(24.349 -3.25914 2.11464e-19)
(25.4076 -3.39271 0)
(26.437 -3.52013 -1.47965e-21)
(27.4458 -3.64268 -2.62859e-21)
(28.4384 -3.76036 -1.08364e-22)
(29.4185 -3.8732 1.44287e-19)
(30.397 -3.9821 -1.30703e-19)
(31.3808 -4.08747 0)
(32.3393 -4.18459 -9.59724e-20)
(33.1937 -4.26129 7.7019e-20)
(33.8601 -4.31124 0)
(34.3074 -4.32438 -8.26727e-20)
(1.4441 -0.189538 -5.64569e-19)
(4.6448 -0.608864 4.71675e-19)
(8.38191 -1.09827 -4.8085e-19)
(12.0198 -1.57499 4.06347e-19)
(14.9423 -1.95724 0)
(17.2274 -2.25545 -2.50726e-19)
(19.0838 -2.49718 2.07779e-19)
(20.6541 -2.70121 3.50776e-22)
(22.0395 -2.88018 0)
(23.2998 -3.04255 1.46738e-19)
(24.4709 -3.19233 3.12601e-23)
(25.5783 -3.33298 -2.53598e-19)
(26.6394 -3.46662 2.36014e-19)
(27.6679 -3.59499 -1.098e-19)
(28.6734 -3.71881 -1.04443e-19)
(29.6614 -3.83883 -5.72603e-23)
(30.6351 -3.95499 8.64779e-20)
(31.6069 -4.06869 7.34667e-20)
(32.5821 -4.17987 2.67509e-22)
(33.5195 -4.28309 7.70202e-21)
(34.3335 -4.36668 -1.05631e-19)
(34.9557 -4.41985 3.98853e-20)
(35.3612 -4.43657 -1.01758e-20)
(1.34406 -0.181925 4.25444e-19)
(4.33805 -0.584582 -8.5131e-23)
(7.85809 -1.05709 -9.13927e-23)
(11.3405 -1.52585 -6.25135e-19)
(14.1783 -1.9058 -1.46079e-23)
(16.4079 -2.20435 3.85677e-19)
(18.2242 -2.44636 3.19185e-19)
(19.7668 -2.65063 -2.75003e-19)
(21.1313 -2.83023 -2.11834e-23)
(22.3766 -2.99305 4.28289e-22)
(23.538 -3.14312 -2.06443e-19)
(24.6392 -3.28408 -8.0813e-22)
(25.6969 -3.41774 -1.0044e-22)
(26.7247 -3.54526 1.30657e-21)
(27.7311 -3.66821 2.3515e-21)
(28.7212 -3.78616 1.41856e-19)
(29.6984 -3.89976 4.02252e-21)
(30.6742 -4.00955 0)
(31.6553 -4.11592 0)
(32.6088 -4.21376 9.30113e-20)
(33.4545 -4.29181 -7.00629e-20)
(34.111 -4.33938 8.87504e-21)
(34.549 -4.34647 -3.00851e-20)
(1.36396 -0.182928 -4.87652e-23)
(4.38849 -0.589057 3.63518e-24)
(7.93488 -1.06427 0)
(11.4379 -1.53384 0)
(14.2869 -1.9144 -4.64796e-19)
(16.526 -2.21314 3.68084e-19)
(18.3479 -2.45522 -3.04219e-19)
(19.8925 -2.65954 2.6264e-19)
(21.2588 -2.83893 -4.67898e-22)
(22.5053 -3.00163 -2.14355e-19)
(23.6674 -3.1519 1.97142e-19)
(24.7689 -3.29295 7.05524e-22)
(25.8266 -3.42664 -1.37875e-21)
(26.854 -3.5546 -1.23208e-21)
(27.8596 -3.67783 -2.38998e-21)
(28.8485 -3.79638 -1.33408e-19)
(29.8245 -3.91066 1.21664e-19)
(30.7994 -4.02146 -1.13799e-19)
(31.7791 -4.12902 1.01544e-19)
(32.7299 -4.22842 -5.43874e-21)
(33.5706 -4.30818 6.74137e-20)
(34.2204 -4.35668 -2.64119e-23)
(34.6528 -4.37258 -5.69869e-20)
(1.37692 -0.184229 4.87663e-23)
(4.4291 -0.592917 3.54131e-24)
(8.00384 -1.07055 6.67669e-19)
(11.5265 -1.54153 -5.6884e-19)
(14.3869 -1.92259 4.43368e-19)
(16.6335 -2.22164 2.54187e-23)
(18.4594 -2.46371 -2.90842e-19)
(20.0078 -2.66786 -2.50232e-22)
(21.376 -2.84764 4.27291e-22)
(22.6245 -3.01019 -3.89974e-22)
(23.7879 -3.16061 7.54541e-22)
(24.8897 -3.30163 -7.03766e-22)
(25.9479 -3.43549 0)
(26.9752 -3.56366 1.53963e-19)
(27.9803 -3.68704 3.77479e-23)
(28.9685 -3.80588 -1.33583e-19)
(29.9438 -3.92054 0)
(30.9178 -4.03196 0)
(31.8964 -4.14012 0)
(32.8449 -4.24067 5.42754e-21)
(33.6812 -4.32051 -6.40067e-20)
(34.3252 -4.37103 -1.3006e-23)
(34.7519 -4.39013 5.56845e-20)
(1.39049 -0.185542 -4.46127e-23)
(4.47062 -0.596898 3.38553e-24)
(8.0739 -1.07729 0)
(11.6157 -1.54962 0)
(14.4863 -1.93123 0)
(16.7376 -2.23008 3.27029e-22)
(18.5666 -2.47209 0)
(20.1185 -2.67649 0)
(21.4892 -2.85623 -4.26185e-22)
(22.7391 -3.01882 1.69097e-23)
(23.9031 -3.1693 6.8865e-22)
(25.0055 -3.3103 0)
(26.0639 -3.4443 1.57201e-19)
(27.0908 -3.57248 1.20883e-21)
(28.0954 -3.6961 -1.36287e-19)
(29.083 -3.81516 0)
(30.0577 -3.93015 0)
(31.0313 -4.04207 0)
(32.0092 -4.15066 5.66407e-21)
(32.9559 -4.25202 0)
(33.7887 -4.33108 0)
(34.4289 -4.38282 -5.30286e-20)
(34.8536 -4.40155 7.86763e-20)
(1.39978 -0.185891 3.56683e-19)
(4.50697 -0.599471 7.43433e-23)
(8.13761 -1.08286 0)
(11.6986 -1.55544 0)
(14.5768 -1.93751 0)
(16.8318 -2.23596 -3.12023e-22)
(18.6657 -2.47829 2.64303e-19)
(20.2203 -2.68262 -2.27847e-19)
(21.5934 -2.86228 0)
(22.8448 -3.02514 -1.85505e-19)
(24.0099 -3.17553 3.44e-19)
(25.1129 -3.31682 -1.60467e-19)
(26.1712 -3.45088 0)
(27.198 -3.57946 -1.07277e-21)
(28.2023 -3.7034 1.99287e-21)
(29.1893 -3.82312 -1.21814e-19)
(30.1635 -3.93873 2.22501e-19)
(31.1364 -4.05166 -1.02255e-19)
(32.1134 -4.1614 -5.65575e-21)
(33.058 -4.2644 -8.22641e-20)
(33.8868 -4.34428 6.69451e-20)
(34.5228 -4.40096 -7.394e-21)
(34.9452 -4.42056 -1.2808e-20)
(1.40986 -0.187556 6.83294e-19)
(4.53967 -0.602031 -5.70567e-19)
(8.19154 -1.08585 5.82821e-19)
(11.7695 -1.56 -9.88373e-19)
(14.6536 -1.94172 8.12607e-23)
(16.915 -2.2401 -8.78186e-24)
(18.7535 -2.48234 2.52419e-19)
(20.3109 -2.68656 -2.17518e-22)
(21.6865 -2.86627 1.94634e-19)
(22.9399 -3.02903 -1.77699e-19)
(24.1066 -3.17952 1.63835e-19)
(25.2103 -3.3208 3.44936e-23)
(26.2693 -3.45487 -1.42475e-19)
(27.2963 -3.58363 4.58965e-23)
(28.3007 -3.70764 -1.98968e-21)
(29.2876 -3.82769 1.14917e-19)
(30.2613 -3.94364 -6.48824e-21)
(31.2336 -4.05705 6.00938e-21)
(32.2097 -4.16767 -1.64397e-19)
(33.1518 -4.27141 1.0684e-22)
(33.9758 -4.35201 -9.22081e-23)
(34.6057 -4.41416 5.55862e-20)
(35.02 -4.43083 -1.18475e-20)
(1.42363 -0.188307 -3.27425e-19)
(4.57278 -0.605308 -3.06117e-24)
(8.24194 -1.09015 1.35784e-22)
(11.8339 -1.56401 -1.12387e-22)
(14.7256 -1.94609 3.66788e-19)
(16.9933 -2.24438 1.58429e-22)
(18.8365 -2.48668 -2.40768e-19)
(20.398 -2.69094 0)
(21.7761 -2.8704 1.86011e-19)
(23.0317 -3.03296 -1.6981e-19)
(24.1997 -3.18333 -1.56935e-19)
(25.3045 -3.32429 1.46398e-19)
(26.3642 -3.45832 -4.91858e-23)
(27.3917 -3.58672 4.59513e-23)
(28.3965 -3.71058 -1.17141e-19)
(29.3836 -3.83032 1.11292e-19)
(30.3575 -3.9461 3.19997e-21)
(31.3296 -4.05895 -1.29894e-22)
(32.3051 -4.16929 -5.17313e-21)
(33.2454 -4.27171 -7.06841e-20)
(34.0659 -4.35108 6.11874e-20)
(34.6925 -4.4118 -5.31246e-20)
(35.1022 -4.41585 6.91993e-20)
(1.43199 -0.188738 -3.12303e-19)
(4.59903 -0.606463 5.19645e-19)
(8.28674 -1.09308 -6.62076e-23)
(11.8905 -1.56781 5.22305e-24)
(14.7953 -1.94983 -8.73195e-23)
(17.0712 -2.24902 1.32117e-22)
(18.9216 -2.49111 2.29382e-19)
(20.4867 -2.69549 2.07348e-22)
(21.867 -2.87472 -1.77028e-19)
(23.1243 -3.03726 1.61686e-19)
(24.2934 -3.18728 3.00198e-23)
(25.3996 -3.32804 -2.793e-19)
(26.4598 -3.4619 -1.08457e-21)
(27.4876 -3.59 1.22862e-19)
(28.4927 -3.71372 -1.81258e-21)
(29.4801 -3.83315 -1.59211e-21)
(30.4538 -3.94883 0)
(31.426 -4.06154 -5.39904e-21)
(32.4012 -4.1717 4.70228e-21)
(33.3407 -4.27351 2.01972e-22)
(34.1588 -4.35387 0)
(34.7839 -4.41288 -5.05614e-20)
(35.1918 -4.41146 -2.20549e-20)
(1.4383 -0.189048 -2.96861e-19)
(4.62281 -0.60782 4.95072e-19)
(8.33858 -1.09641 6.01324e-23)
(11.9572 -1.57201 1.06792e-22)
(14.8719 -1.9539 -3.32057e-19)
(17.1523 -2.25282 2.63362e-19)
(19.0055 -2.49467 0)
(20.5734 -2.69889 -3.67985e-22)
(21.9565 -2.87794 0)
(23.2152 -3.0404 -1.53787e-19)
(24.3851 -3.1902 1.42102e-19)
(25.4919 -3.33086 1.33182e-19)
(26.5527 -3.46462 4.12192e-23)
(27.5808 -3.59271 -1.16896e-19)
(28.586 -3.71645 0)
(29.5738 -3.83602 1.59007e-21)
(30.5477 -3.95178 0)
(31.5196 -4.06476 5.14148e-21)
(32.495 -4.17507 6.41513e-20)
(33.4336 -4.27704 -6.39229e-20)
(34.25 -4.35902 5.53876e-20)
(34.8739 -4.41438 5.91665e-21)
(35.2798 -4.41357 -6.24037e-20)
(1.58047 -0.194624 -4.96384e-20)
(5.06701 -0.623426 0)
(9.09102 -1.11791 -8.27505e-20)
(12.9139 -1.58761 6.89207e-20)
(15.9353 -1.95905 0)
(18.2887 -2.24788 -1.89537e-23)
(20.1939 -2.48137 -3.52905e-20)
(21.8038 -2.67848 3.05108e-20)
(23.2211 -2.85161 -2.73528e-20)
(24.5093 -3.00855 2.49955e-20)
(25.7064 -3.15394 -5.70735e-23)
(26.8364 -3.29069 -2.16902e-20)
(27.9179 -3.42088 2.78857e-22)
(28.9647 -3.54623 1.91123e-20)
(29.9864 -3.66771 -1.77005e-20)
(30.9888 -3.7858 -5.70393e-22)
(31.9799 -3.90144 1.54477e-20)
(32.9724 -4.01568 0)
(33.9621 -4.12768 -1.29158e-20)
(34.9026 -4.23183 9.94312e-21)
(35.7163 -4.31655 -8.11548e-21)
(36.3386 -4.37783 1.72977e-20)
(36.7244 -4.39797 -5.19373e-21)
(1.58809 -0.194851 0)
(5.08633 -0.623599 0)
(9.11666 -1.11806 0)
(12.9436 -1.58719 5.69931e-20)
(15.968 -1.95756 -4.41587e-20)
(18.3237 -2.24598 3.51142e-20)
(20.2296 -2.47904 -2.9127e-20)
(21.8414 -2.67572 0)
(23.2601 -2.84858 2.43394e-23)
(24.5497 -3.00535 -2.07045e-20)
(25.7475 -3.15044 1.91382e-20)
(26.8781 -3.28692 0)
(27.9603 -3.41696 -1.68213e-20)
(29.008 -3.54219 -6.60542e-23)
(30.0307 -3.66359 -4.80371e-23)
(31.0344 -3.78168 -1.2915e-23)
(32.027 -3.89731 1.23705e-20)
(33.0211 -4.01162 -3.17103e-22)
(34.0121 -4.12367 1.26446e-21)
(34.9535 -4.22787 0)
(35.7678 -4.31282 8.76394e-22)
(36.3905 -4.37416 -9.35496e-22)
(36.7764 -4.39748 0)
(1.45331 -0.190124 0)
(4.6736 -0.610764 -5.62149e-23)
(8.43029 -1.10147 2.71052e-24)
(12.084 -1.57826 4.57497e-24)
(15.0101 -1.96 -3.00326e-19)
(17.2976 -2.25781 4.76862e-19)
(19.157 -2.49921 -1.97584e-19)
(20.7297 -2.70304 1.70512e-19)
(22.1163 -2.88181 2.02877e-23)
(23.3779 -3.04384 2.3175e-23)
(24.55 -3.19361 -1.28959e-19)
(25.6577 -3.33419 4.81778e-22)
(26.7195 -3.46778 9.02048e-22)
(27.7485 -3.59617 -1.05383e-19)
(28.7547 -3.72013 9.94492e-20)
(29.7431 -3.8403 -1.37503e-21)
(30.7172 -3.95664 2.51144e-21)
(31.689 -4.07066 7.47156e-20)
(32.664 -4.18225 -6.22153e-20)
(33.6001 -4.28588 -3.72543e-21)
(34.4118 -4.36933 0)
(35.0315 -4.42545 -4.89349e-20)
(35.4339 -4.45657 4.7119e-20)
(1.46576 -0.191367 -1.61958e-24)
(4.70805 -0.614061 4.27957e-19)
(8.48189 -1.10547 -4.34859e-19)
(12.1416 -1.58184 3.6679e-19)
(15.0741 -1.96314 0)
(17.3662 -2.2612 -5.53888e-24)
(19.2283 -2.50228 0)
(20.803 -2.70584 0)
(22.1903 -2.88446 0)
(23.4532 -3.04626 0)
(24.6265 -3.19593 -1.22572e-19)
(25.735 -3.33636 1.13956e-19)
(26.7972 -3.46986 0)
(27.8268 -3.5981 -9.9406e-20)
(28.8334 -3.72197 9.30424e-20)
(29.8221 -3.8422 -8.56699e-20)
(30.7965 -3.95853 -1.74258e-22)
(31.7688 -4.07266 7.31108e-20)
(32.7438 -4.18431 -6.70679e-20)
(33.6792 -4.28767 -5.26433e-23)
(34.4894 -4.37111 4.77222e-20)
(35.1085 -4.4276 5.30361e-21)
(35.5109 -4.44307 -9.21935e-21)
(1.47854 -0.192188 4.89598e-19)
(4.74199 -0.616678 5.67654e-24)
(8.5324 -1.10904 -4.12574e-19)
(12.1989 -1.58564 1.6983e-22)
(15.1364 -1.96646 0)
(17.434 -2.26397 -2.14826e-19)
(19.2994 -2.50524 -1.75797e-23)
(20.8753 -2.70842 1.53564e-19)
(22.2636 -2.8867 1.37368e-19)
(23.5269 -3.04825 -1.25537e-19)
(24.7008 -3.19765 4.42743e-22)
(25.8099 -3.33791 4.35245e-22)
(26.8727 -3.47127 0)
(27.9026 -3.59944 -3.79884e-23)
(28.9097 -3.72336 1.34605e-21)
(29.8987 -3.84363 8.27433e-20)
(30.8732 -3.96008 -7.6692e-20)
(31.8455 -4.07447 0)
(32.8204 -4.18652 1.89323e-22)
(33.7547 -4.29047 -3.20153e-21)
(34.5633 -4.37533 0)
(35.1814 -4.43226 0)
(35.581 -4.45269 0)
(1.48173 -0.191661 0)
(4.762 -0.616816 -3.8614e-19)
(8.57238 -1.11098 3.91591e-19)
(12.2541 -1.58711 3.29266e-19)
(15.1956 -1.96798 -2.56143e-19)
(17.4966 -2.26505 -1.01992e-22)
(19.365 -2.50581 0)
(20.9429 -2.70872 1.45775e-19)
(22.3321 -2.88673 -1.30137e-19)
(23.5964 -3.04804 1.18985e-19)
(24.7711 -3.19734 -1.10673e-19)
(25.8811 -3.33738 1.02592e-19)
(26.9446 -3.47073 -9.643e-20)
(27.9756 -3.59874 -3.67049e-23)
(28.9831 -3.72267 -1.34459e-21)
(29.9722 -3.84283 7.60581e-20)
(30.9469 -3.95934 -6.83192e-20)
(31.9194 -4.07374 0)
(32.8943 -4.18584 3.65265e-21)
(33.8277 -4.28979 -4.96945e-20)
(34.6351 -4.37449 8.61249e-20)
(35.2522 -4.42983 8.33553e-23)
(35.6506 -4.45149 -3.24908e-20)
(1.48862 -0.192774 2.19712e-19)
(4.78554 -0.618277 3.66477e-19)
(8.61341 -1.11264 -3.71079e-19)
(12.3045 -1.58903 7.82455e-23)
(15.2532 -1.96895 2.42587e-19)
(17.5571 -2.26581 -1.92621e-19)
(19.4257 -2.50599 1.59695e-19)
(21.0052 -2.70841 -1.37967e-19)
(22.3964 -2.88635 0)
(23.6624 -3.04749 0)
(24.838 -3.19653 0)
(25.9488 -3.33652 9.80044e-20)
(27.013 -3.46977 3.97375e-23)
(28.0444 -3.59772 -1.71689e-19)
(29.0526 -3.72169 1.60141e-19)
(30.0423 -3.84191 -1.45214e-19)
(31.0175 -3.95859 6.26239e-20)
(31.9906 -4.07312 1.84225e-21)
(32.9658 -4.18544 0)
(33.899 -4.28979 3.02992e-21)
(34.7059 -4.37441 0)
(35.3233 -4.42993 0)
(35.722 -4.45657 -2.33305e-20)
(1.49952 -0.193182 -4.1755e-19)
(4.8095 -0.619639 3.47059e-19)
(8.6491 -1.11367 3.5129e-19)
(12.3458 -1.58949 -2.95458e-19)
(15.3004 -1.96953 -2.29573e-19)
(17.6097 -2.2661 1.8237e-19)
(19.4812 -2.50607 0)
(21.0633 -2.7084 0)
(22.4567 -2.88612 0)
(23.7235 -3.04708 1.06806e-19)
(24.9006 -3.19591 -9.85921e-20)
(26.0127 -3.33584 -3.51368e-22)
(27.0776 -3.46895 8.66363e-20)
(28.1097 -3.59692 -1.61952e-19)
(29.1184 -3.72085 7.51711e-20)
(30.1086 -3.84112 -6.93301e-20)
(31.0843 -3.95799 6.5299e-20)
(32.0582 -4.07273 -5.91755e-20)
(33.0339 -4.18531 -6.53102e-23)
(33.9668 -4.29012 4.46604e-20)
(34.7734 -4.37454 0)
(35.3911 -4.43171 2.94287e-20)
(35.7903 -4.45863 -7.47054e-21)
(1.5062 -0.19363 -1.23952e-23)
(4.83109 -0.620849 3.28212e-19)
(8.6811 -1.11525 -6.63669e-19)
(12.389 -1.59119 5.58114e-19)
(15.351 -1.97123 -4.33534e-19)
(17.6618 -2.26723 1.72148e-19)
(19.5361 -2.5068 -1.35489e-22)
(21.12 -2.70905 -1.23381e-19)
(22.5148 -2.88643 -2.02344e-23)
(23.7826 -3.04721 -2.44608e-23)
(24.9608 -3.19587 9.31194e-20)
(26.0742 -3.33564 3.51063e-22)
(27.1403 -3.46864 -8.18755e-20)
(28.1731 -3.5964 -4.6664e-23)
(29.1823 -3.72022 -1.16501e-22)
(30.1729 -3.8403 -6.10252e-23)
(31.1491 -3.95716 -6.79716e-23)
(32.1236 -4.072 5.41327e-20)
(33.0997 -4.18465 4.83506e-20)
(34.032 -4.28969 -8.45571e-20)
(34.8382 -4.37432 3.65227e-20)
(35.4555 -4.43416 4.07598e-21)
(35.8529 -4.46086 6.7338e-21)
(1.51758 -0.194498 -2.21362e-23)
(4.86092 -0.623059 0)
(8.71959 -1.11689 -3.12691e-19)
(12.4361 -1.59216 5.25331e-19)
(15.4 -1.97161 -4.08177e-19)
(17.7124 -2.2669 1.62142e-19)
(19.5893 -2.50622 1.35255e-22)
(21.1756 -2.70807 -1.16305e-19)
(22.572 -2.88519 -2.01975e-23)
(23.8414 -3.0457 9.50755e-20)
(25.0204 -3.19411 0)
(26.1344 -3.33366 -3.12282e-22)
(27.2012 -3.46651 0)
(28.235 -3.59414 5.47131e-22)
(29.2446 -3.7178 -1.07875e-21)
(30.2359 -3.83784 0)
(31.2127 -3.95459 -1.71128e-21)
(32.1878 -4.06938 0)
(33.1643 -4.18192 0)
(34.0966 -4.28669 0)
(34.9026 -4.3711 -3.87249e-20)
(35.5201 -4.431 2.62761e-20)
(35.9161 -4.45093 1.94675e-20)
(1.52779 -0.195051 2.21813e-23)
(4.88826 -0.624352 0)
(8.75582 -1.11825 0)
(12.4806 -1.5931 -6.21334e-23)
(15.4491 -1.97202 0)
(17.7637 -2.26681 0)
(19.6424 -2.50554 0)
(21.2299 -2.70718 0)
(22.6277 -2.88403 9.77308e-20)
(23.8985 -3.04433 -8.93891e-20)
(25.079 -3.19255 3.14004e-22)
(26.1939 -3.33192 6.05288e-22)
(27.2614 -3.46445 0)
(28.2955 -3.59201 -5.46538e-22)
(29.3059 -3.71541 9.55476e-22)
(30.2975 -3.83538 0)
(31.2748 -3.95206 -4.97601e-20)
(32.2509 -4.0668 4.79943e-20)
(33.2281 -4.17934 -2.59696e-21)
(34.1606 -4.284 -2.27366e-21)
(34.9668 -4.36857 3.66695e-20)
(35.5851 -4.42782 -2.45092e-20)
(35.9809 -4.44838 0)
(1.53422 -0.195279 3.31203e-19)
(4.90778 -0.62495 -5.47565e-19)
(8.78852 -1.11907 5.52019e-19)
(12.5217 -1.59368 -2.31627e-19)
(15.4969 -1.97214 -1.79853e-19)
(17.8133 -2.26631 2.8579e-19)
(19.6938 -2.50463 -9.63538e-23)
(21.2832 -2.70581 1.86743e-23)
(22.682 -2.8823 2.13573e-23)
(23.9537 -3.04231 2.57008e-23)
(25.1349 -3.1903 -7.80931e-20)
(26.2504 -3.32936 7.24346e-20)
(27.319 -3.46178 4.21923e-23)
(28.3538 -3.58922 -6.31919e-20)
(29.3647 -3.71247 -5.81415e-23)
(30.3569 -3.83231 5.45432e-20)
(31.3349 -3.94899 -5.13766e-20)
(32.3121 -4.06377 4.51403e-20)
(33.2902 -4.17637 -3.75855e-20)
(34.2229 -4.28113 -3.29909e-20)
(35.0296 -4.36598 -9.17703e-23)
(35.6484 -4.42547 -9.60662e-23)
(36.0436 -4.44742 2.30598e-20)
(1.53489 -0.194681 0)
(4.91488 -0.623524 2.07982e-24)
(8.81244 -1.11865 2.58924e-19)
(12.5543 -1.59324 -2.17297e-19)
(15.536 -1.97093 0)
(17.8571 -2.26519 1.33937e-19)
(19.7394 -2.50308 -1.11006e-19)
(21.3306 -2.70381 0)
(22.7314 -2.88014 8.59912e-20)
(24.005 -3.03993 -1.57278e-19)
(25.1872 -3.18771 7.29076e-20)
(26.304 -3.32663 -6.81421e-20)
(27.3737 -3.45898 6.37996e-20)
(28.4093 -3.58622 -4.8149e-22)
(29.4209 -3.70948 -5.7409e-23)
(30.4137 -3.82923 -5.1066e-20)
(31.3929 -3.94593 4.66147e-20)
(32.3715 -4.0608 -4.22702e-20)
(33.3505 -4.1734 3.76254e-20)
(34.2836 -4.27814 0)
(35.0911 -4.36298 0)
(35.7106 -4.42228 0)
(36.1054 -4.44471 0)
(1.53529 -0.194565 1.44248e-19)
(4.92233 -0.62321 2.08333e-24)
(8.84079 -1.11934 2.84498e-23)
(12.5914 -1.5945 0)
(15.5751 -1.97137 3.69991e-23)
(17.9023 -2.26531 6.31026e-23)
(19.7856 -2.50316 0)
(21.3776 -2.7034 0)
(22.7801 -2.87954 0)
(24.0552 -3.03918 0)
(25.2392 -3.18683 0)
(26.3573 -3.32554 -6.34848e-20)
(27.4276 -3.45767 -3.78737e-23)
(28.4642 -3.58467 3.74628e-22)
(29.4766 -3.70774 5.07833e-20)
(30.4702 -3.82727 0)
(31.4503 -3.94376 -1.31154e-21)
(32.4302 -4.05861 -3.94269e-20)
(33.4099 -4.17108 3.5086e-20)
(34.3435 -4.27585 -3.08024e-20)
(35.1516 -4.36064 -8.93199e-23)
(35.7717 -4.42042 2.71058e-21)
(36.1661 -4.4438 2.50421e-20)
(1.54539 -0.195425 1.34386e-19)
(4.94883 -0.625537 9.21892e-24)
(8.87501 -1.12064 -2.53065e-23)
(12.633 -1.59443 -1.87697e-19)
(15.6168 -1.97131 1.45728e-19)
(17.9456 -2.26441 -1.15851e-19)
(19.8327 -2.50171 9.60192e-20)
(21.4266 -2.70198 1.83084e-23)
(22.83 -2.87768 -7.43554e-20)
(24.106 -3.03693 0)
(25.2911 -3.18437 6.33251e-20)
(26.41 -3.32295 -1.17634e-19)
(27.4813 -3.45479 1.1038e-19)
(28.5187 -3.58176 -5.16102e-20)
(29.5319 -3.70456 4.7967e-20)
(30.5261 -3.82405 -4.41483e-20)
(31.5074 -3.94045 2.52486e-21)
(32.4884 -4.05522 0)
(33.4688 -4.16764 1.96488e-21)
(34.4028 -4.27243 -3.03646e-20)
(35.2113 -4.35703 -9.55968e-23)
(35.8316 -4.41747 1.87097e-20)
(36.2248 -4.44084 1.40108e-20)
(1.5475 -0.194528 7.27659e-24)
(4.95849 -0.623624 2.61529e-23)
(8.89555 -1.11997 2.43147e-23)
(12.6641 -1.59434 1.73559e-19)
(15.6564 -1.97013 -1.34716e-19)
(17.9873 -2.26298 1.07124e-19)
(19.8775 -2.50005 1.0615e-22)
(21.4739 -2.69992 -7.68125e-20)
(22.8781 -2.87533 0)
(24.1549 -3.03438 6.28921e-20)
(25.3414 -3.18149 1.01583e-23)
(26.4614 -3.31995 -3.91757e-22)
(27.5338 -3.45156 3.98822e-23)
(28.572 -3.5784 -3.41022e-22)
(29.5861 -3.70101 -4.42818e-20)
(30.5809 -3.8203 -4.14775e-20)
(31.563 -3.93665 7.34848e-20)
(32.5455 -4.05139 -3.27887e-20)
(33.5269 -4.16377 -3.77601e-21)
(34.4613 -4.26842 1.71876e-21)
(35.2705 -4.35286 0)
(35.8912 -4.41374 0)
(36.2836 -4.43546 4.19634e-21)
(1.54976 -0.194766 -2.06096e-23)
(4.97063 -0.624364 1.89554e-19)
(8.92631 -1.12039 -1.90864e-19)
(12.7012 -1.59354 0)
(15.6963 -1.96921 5.79463e-23)
(18.0295 -2.26169 9.83017e-20)
(19.9206 -2.49803 -8.16099e-20)
(21.5182 -2.69749 0)
(22.9248 -2.87266 0)
(24.203 -3.03146 5.78079e-20)
(25.3902 -3.17833 -1.0738e-19)
(26.5113 -3.31645 5.02538e-20)
(27.5848 -3.448 0)
(28.6241 -3.57459 4.38707e-20)
(29.6388 -3.69709 6.08569e-23)
(30.6346 -3.81618 -7.45142e-20)
(31.6179 -3.93242 3.43407e-20)
(32.6015 -4.0471 -1.01493e-21)
(33.5837 -4.15945 3.47891e-21)
(34.5189 -4.26398 0)
(35.3285 -4.34849 0)
(35.9494 -4.41 1.848e-20)
(36.3406 -4.43124 -2.02575e-20)
(1.55909 -0.194847 -1.04977e-19)
(4.99751 -0.625281 2.02758e-23)
(8.95609 -1.12043 0)
(12.7339 -1.59246 -1.46215e-19)
(15.7355 -1.96766 -4.27642e-23)
(18.0711 -2.25922 -6.39928e-24)
(19.9611 -2.49495 7.47482e-20)
(21.5594 -2.69377 6.47296e-20)
(22.9681 -2.86875 -1.15827e-19)
(24.2486 -3.02736 5.29518e-20)
(25.437 -3.17405 0)
(26.5594 -3.31192 0)
(27.6343 -3.44325 4.29894e-20)