/*--------------------------------*- C++ -*----------------------------------*\
  =========                 |
  \\      /  F ield         | OpenFOAM: The Open Source CFD Toolbox
   \\    /   O peration     | Website:  https://openfoam.org
    \\  /    A nd           | Version:  10
     \\/     M anipulation  |
\*---------------------------------------------------------------------------*/
FoamFile
{
    format      ascii;
    class       volVectorField;
    location    "200";
    object      wallShearStress;
}
// * * * * * * * * * * * * * * * * * * * * * * * * * * * * * * * * * * * * * //

dimensions      [0 2 -2 0 0 0 0];

internalField   uniform (0 0 0);

boundaryField
{
    back
    {
        type            empty;
    }
    front
    {
        type            empty;
    }
    exit
    {
        type            calculated;
        value           uniform (0 0 0);
    }
    bottom
    {
        type            calculated;
        value           uniform (0 0 0);
    }
    inlet
    {
        type            calculated;
        value           uniform (0 0 0);
    }
    top
    {
        type            calculated;
        value           uniform (0 0 0);
    }
    aerofoil
    {
        type            calculated;
        value           nonuniform List<vector> 
817
(
(-2.07171 0.278497 -4.1489e-23)
(-2.95816 0.105165 -4.10047e-19)
(-2.95097 0.102329 8.23433e-19)
(-1.86013 0.262841 -5.25427e-28)
(-0.0695996 -0.0164808 0)
(-1.76595 0.2446 1.30049e-22)
(-1.75212 0.243674 5.55957e-24)
(-1.99316 0.271315 -1.9349e-22)
(-1.96263 0.267773 2.02254e-22)
(-1.92919 0.263985 -2.11422e-22)
(-1.8926 0.259855 2.21143e-22)
(-1.85204 0.254805 -1.13082e-22)
(-1.81299 0.250533 -3.09945e-40)
(-2.02355 0.274683 7.58043e-19)
(-2.07932 0.214038 0)
(-2.04767 0.276873 -9.05518e-23)
(-2.26164 0.296902 8.84199e-19)
(-2.09877 0.284488 -6.64375e-19)
(-2.12271 0.284514 7.58908e-23)
(-2.14289 0.2866 -7.58942e-23)
(-2.16403 0.288624 6.94291e-23)
(-2.18557 0.289915 -5.56892e-19)
(-2.20151 0.293144 -1.06702e-18)
(-2.21564 0.292983 5.09579e-19)
(-2.22867 0.293608 4.86043e-19)
(-2.24567 0.294982 4.63488e-19)
(-2.47221 0.304585 7.76516e-20)
(-2.47798 0.304045 0)
(-2.27604 0.297776 0)
(-2.28821 0.298879 5.32647e-24)
(-2.30062 0.298954 -7.61812e-19)
(-2.31461 0.299084 2.35099e-36)
(-2.32734 0.30162 -3.43519e-19)
(-2.33831 0.301178 6.51115e-19)
(-2.34903 0.301979 1.93317e-23)
(-2.35911 0.302377 3.44107e-23)
(-2.36918 0.302368 -3.43972e-23)
(-2.37917 0.302757 -5.136e-19)
(-2.38755 0.302667 0)
(-2.39582 0.303647 -2.25102e-19)
(-2.40416 0.304171 -2.09074e-19)
(-2.41313 0.303039 -1.13462e-23)
(-2.42295 0.30464 3.22218e-23)
(-2.42985 0.303515 1.63602e-19)
(-2.43649 0.304376 0)
(-2.44356 0.303934 -1.33686e-19)
(-2.45204 0.303837 1.19425e-19)
(-2.45757 0.304299 1.05067e-19)
(-2.46475 0.303385 -1.46937e-39)
(-2.70119 0.291358 -2.5378e-23)
(-2.70654 0.291305 -4.2056e-19)
(-2.71161 0.290803 4.29428e-19)
(-2.71506 0.289961 2.64937e-23)
(-2.72068 0.289661 -4.48301e-19)
(-2.48454 0.304106 -2.60078e-37)
(-2.49091 0.303826 3.76488e-20)
(-2.49758 0.303946 -2.48174e-20)
(-2.50399 0.303882 -1.19878e-20)
(-2.51079 0.303442 2.55245e-23)
(-2.51591 0.303813 1.23307e-20)
(-2.52181 0.302889 3.67342e-40)
(-2.52663 0.303839 -5.18852e-24)
(-2.53246 0.302181 5.18459e-24)
(-2.53816 0.302865 -6.04905e-20)
(-2.54485 0.301662 -7.22879e-20)
(-2.54972 0.302636 0)
(-2.55287 0.301278 6.14191e-24)
(-2.55877 0.301704 2.12821e-19)
(-2.56467 0.301513 6.88775e-25)
(-2.57143 0.301865 -1.57383e-23)
(-2.57656 0.301133 8.2027e-24)
(-2.58199 0.30061 -1.90538e-23)
(-2.58775 0.300348 1.61327e-19)
(-2.59058 0.299948 -1.05288e-23)
(-2.59645 0.299335 2.8716e-23)
(-2.60268 0.299733 1.94005e-19)
(-2.60714 0.300048 2.04275e-19)
(-2.61335 0.298485 -1.20187e-35)
(-2.61858 0.29896 2.24727e-19)
(-2.62356 0.298288 -4.69206e-19)
(-2.62666 0.297454 -2.44803e-19)
(-2.63119 0.297942 2.55529e-19)
(-2.63648 0.297336 1.17549e-38)
(-2.6416 0.297034 1.71544e-23)
(-2.64668 0.297449 -1.7147e-23)
(-2.65218 0.296381 -2.95423e-19)
(-2.65656 0.295932 -3.05291e-19)
(-2.66167 0.296209 -2.0083e-23)
(-2.66498 0.294817 -1.19369e-24)
(-2.67006 0.294974 -3.33696e-19)
(-2.67293 0.294022 -3.43624e-19)
(-2.67747 0.293764 3.5372e-19)
(-2.68175 0.293624 -3.64115e-19)
(-2.68757 0.293734 -5.7129e-36)
(-2.69078 0.292568 -2.48008e-35)
(-2.69606 0.292691 0)
(-2.69802 0.291459 -1.43493e-42)
(-3.00892 0.224433 5.66636e-19)
(-3.01163 0.222453 -5.70979e-19)
(-3.01377 0.222249 -1.05444e-22)
(-3.01616 0.220441 3.49695e-23)
(-3.01967 0.219603 -2.31631e-25)
(-3.02155 0.218113 5.86417e-19)
(-3.02531 0.217067 3.58919e-23)
(-3.02704 0.215206 0)
(-3.02805 0.21373 5.96988e-19)
(-3.02906 0.21218 7.3197e-23)
(-2.72659 0.289828 -4.57279e-19)
(-2.72929 0.288485 9.31163e-19)
(-2.73241 0.288358 -9.49633e-19)
(-2.73726 0.288219 -4.83665e-19)
(-2.73963 0.28716 -9.84903e-19)
(-2.74546 0.287426 -5.01638e-19)
(-2.74992 0.286359 -2.20405e-39)
(-2.75266 0.285763 -5.19772e-19)
(-2.75856 0.285749 -1.05749e-18)
(-2.76247 0.285076 6.61067e-23)
(-2.76569 0.284238 -6.60652e-23)
(-2.76976 0.283655 5.5453e-19)
(-2.77346 0.283431 0)
(-2.7796 0.28348 3.52211e-23)
(-2.78547 0.282651 -3.52083e-23)
(-2.78841 0.281961 3.62238e-23)
(-2.79447 0.282073 -3.62391e-23)
(-2.79783 0.280923 7.01824e-39)
(-2.80144 0.280472 0)
(-2.80532 0.280458 -1.24399e-18)
(-2.80954 0.279678 1.25858e-18)
(-2.81315 0.27882 1.27536e-18)
(-2.81504 0.278076 -6.46164e-19)
(-2.82098 0.278047 3.96994e-23)
(-2.82591 0.277138 -2.55776e-39)
(-2.83241 0.276882 2.06373e-23)
(-2.83387 0.276258 -6.24391e-23)
(-2.83877 0.275499 -1.37913e-18)
(-2.84267 0.274667 4.28008e-23)
(-2.84687 0.274607 1.41173e-18)
(-2.85218 0.273855 7.13408e-19)
(-2.85732 0.273417 -7.20962e-19)
(-2.85819 0.272655 -4.4698e-23)
(-2.86144 0.271433 6.73637e-23)
(-2.86699 0.271506 -2.26441e-23)
(-2.87038 0.270602 -2.86986e-42)
(-2.87374 0.269908 4.66481e-23)
(-2.87492 0.268839 7.67869e-19)
(-2.87937 0.268392 -4.89117e-25)
(-2.8808 0.267286 -5.02489e-25)
(-2.88467 0.266762 -7.92488e-19)
(-2.88817 0.265963 1.60004e-18)
(-2.89179 0.2651 -4.70198e-38)
(-2.8955 0.265138 5.31888e-39)
(-2.90043 0.263455 2.35099e-38)
(-2.90464 0.263289 8.32092e-19)
(-2.90681 0.262022 8.394e-19)
(-2.90923 0.261461 8.47581e-19)
(-2.91146 0.260596 0)
(-2.91425 0.259562 -8.63657e-19)
(-2.91778 0.25923 -8.7136e-19)
(-2.92179 0.258193 5.33948e-23)
(-2.92361 0.257064 -8.8597e-19)
(-2.92905 0.256488 -8.94692e-19)
(-2.93158 0.255564 9.01335e-19)
(-2.93184 0.254177 -9.08671e-19)
(-2.93531 0.253708 9.17764e-19)
(-2.93765 0.252912 -9.26133e-19)
(-2.94293 0.252243 9.34213e-19)
(-2.9466 0.251444 -5.52668e-23)
(-2.94809 0.250292 8.87181e-23)
(-2.95084 0.248967 -1.91088e-18)
(-2.95276 0.247918 9.7472e-35)
(-2.95636 0.24717 -5.9503e-23)
(-2.95864 0.246016 5.95068e-23)
(-2.96009 0.244978 -9.85781e-19)
(-2.96159 0.244167 -9.93907e-19)
(-2.96447 0.24318 1.00186e-18)
(-2.96865 0.24208 -2.02037e-18)
(-2.97303 0.241414 -1.01793e-18)
(-2.97572 0.239829 6.23863e-23)
(-2.97839 0.239121 -1.0347e-18)
(-2.98253 0.238113 1.04197e-18)
(-2.98553 0.237382 -2.09944e-18)
(-2.98728 0.235941 3.20239e-23)
(-2.98846 0.234621 1.34289e-24)
(-2.99173 0.234094 2.95782e-24)
(-2.99458 0.232572 2.35099e-38)
(-2.99685 0.231795 1.08865e-18)
(-3.00034 0.230264 -1.09589e-18)
(-3.00178 0.228946 -6.76483e-23)
(-3.006 0.228129 -5.56005e-19)
(-3.00691 0.226811 5.59179e-19)
(-3.00772 0.225118 -5.62795e-19)
(-3.71477 -0.551736 -4.52971e-18)
(-3.72826 -0.567151 2.05052e-22)
(-3.73909 -0.584072 -2.26379e-18)
(-3.75017 -0.600557 -4.51889e-18)
(-3.76264 -0.618045 2.50145e-35)
(-3.77608 -0.635957 0)
(-3.79095 -0.654885 0)
(-3.80762 -0.674644 8.97226e-18)
(-3.829 -0.696237 4.47434e-18)
(-3.84948 -0.718489 -4.45862e-18)
(-3.87571 -0.742371 4.43968e-18)
(-3.89933 -0.76673 -4.42145e-18)
(-3.92585 -0.79279 4.40067e-18)
(-3.95315 -0.820142 4.37593e-18)
(-3.98441 -0.849215 2.66447e-22)
(-4.01601 -0.880466 2.63255e-22)
(-4.04852 -0.912058 -5.24529e-22)
(-4.08435 -0.946888 1.79603e-24)
(-4.12183 -0.98322 1.97573e-24)
(-4.16217 -1.02213 4.20093e-18)
(-3.03198 0.211372 -6.05709e-19)
(-3.0338 0.209912 6.09517e-19)
(-3.03461 0.208665 -3.86229e-23)
(-3.03648 0.207118 7.53842e-23)
(-3.03897 0.206105 -1.13963e-22)
(-3.04143 0.204475 3.77966e-23)
(-3.04195 0.202959 -3.87496e-23)
(-3.04463 0.201187 -6.32869e-19)
(-3.04468 0.19976 -2.30624e-25)
(-3.04414 0.197859 7.8276e-23)
(-3.04521 0.196685 -3.92879e-23)
(-3.04539 0.195392 -3.97339e-23)
(-3.04581 0.193558 -2.483e-25)
(-3.04845 0.191819 -6.57126e-19)
(-3.05048 0.190864 4.02214e-23)
(-3.05165 0.188855 0)
(-3.05405 0.186881 -4.08937e-23)
(-3.05423 0.185333 6.72164e-19)
(-3.05625 0.183366 6.76195e-19)
(-3.05498 0.182084 -6.80131e-19)
(-3.05561 0.180163 6.84023e-19)
(-3.05744 0.178809 -8.4213e-23)
(-3.05756 0.176898 8.41643e-23)
(-3.05755 0.174986 -6.9503e-19)
(-3.05872 0.173198 -6.99122e-19)
(-3.05738 0.171306 8.55667e-23)
(-3.05735 0.169598 -4.32522e-23)
(-3.05648 0.167566 7.10435e-19)
(-3.05565 0.165461 -7.14246e-19)
(-3.05481 0.164134 -1.17549e-38)
(-3.05234 0.161417 -4.18948e-23)
(-3.05132 0.160167 4.41787e-23)
(-3.04958 0.157637 -7.30004e-19)
(-3.04888 0.15614 -7.33415e-19)
(-3.04455 0.153482 7.37083e-19)
(-3.04364 0.151314 -7.4161e-19)
(-3.04207 0.14958 -7.45694e-19)
(-3.03653 0.146841 4.55891e-23)
(-3.0339 0.145221 3.1346e-39)
(-3.02935 0.142676 7.55255e-35)
(-3.0246 0.140547 7.60312e-19)
(-3.02063 0.138355 -2.44561e-25)
(-3.01621 0.136034 4.67806e-23)
(-3.0128 0.13395 7.72951e-19)
(-3.00948 0.131245 -7.76941e-19)
(-3.0067 0.129444 8.60932e-35)
(-3.00069 0.126391 -1.56797e-18)
(-2.99624 0.124348 -4.8221e-23)
(-2.9899 0.121885 9.669e-23)
(-2.98564 0.119734 -9.75757e-23)
(-2.98058 0.117213 4.87209e-23)
(-2.97636 0.114947 -4.92081e-23)
(-2.97246 0.112674 -2.41934e-25)
(-2.96806 0.109753 -4.06174e-19)
(-2.96343 0.107846 4.08298e-19)
(-2.61539 -0.307459 -1.56051e-23)
(-2.60866 -0.307572 -2.33065e-19)
(-2.60164 -0.307038 6.76343e-24)
(-2.94496 0.0999816 4.14121e-19)
(-2.94228 0.0978598 -4.16208e-19)
(-2.94022 0.0950003 -5.09988e-35)
(-2.93679 0.0926562 -8.40599e-19)
(-2.93443 0.0902548 4.59177e-39)
(-2.93285 0.08771 -8.48613e-19)
(-2.93224 0.0852311 4.26309e-19)
(-2.93107 0.0825803 -2.93874e-39)
(-2.92822 0.0799328 0)
(-2.9245 0.0773464 -4.31755e-19)
(-2.92176 0.0750473 4.02607e-36)
(-2.91979 0.0724278 -5.33625e-23)
(-2.91995 0.0696818 5.33668e-23)
(-2.91764 0.0672375 5.87747e-39)
(-2.91583 0.0643086 4.42784e-19)
(-2.91868 0.0619133 -1.89607e-35)
(-2.92336 0.0589661 -4.47335e-19)
(-2.92936 0.0563967 -5.49301e-23)
(-2.9324 0.0534409 -2.25268e-19)
(-2.93438 0.0509351 4.58443e-37)
(-2.93484 0.0482856 -4.5415e-19)
(-2.93726 0.0457081 0)
(-2.94037 0.0427603 2.28964e-19)
(-2.94592 0.03991 5.60187e-23)
(-2.94726 0.037077 2.30868e-19)
(-2.94633 0.0341024 -7.34684e-40)
(-2.95368 0.0310933 0)
(-2.96263 0.0282643 7.34684e-40)
(-2.96817 0.0253248 1.17381e-19)
(-2.97331 0.0222068 1.17792e-19)
(-2.97861 0.019251 -1.43493e-42)
(-2.98521 0.0159563 1.18686e-19)
(-2.99122 0.0126078 5.9561e-20)
(-2.99842 0.00962422 -3.48975e-39)
(-3.00463 0.00612057 -6.00138e-20)
(-3.01167 0.00276084 0)
(-3.0212 -0.000655859 3.78085e-21)
(-3.03153 -0.00410663 0)
(-3.04148 -0.00742295 -9.18355e-41)
(-3.04992 -0.0110689 -1.22219e-19)
(-3.05915 -0.0145693 2.40058e-37)
(-3.07347 -0.0181336 -1.43285e-35)
(-3.08703 -0.0219508 -1.23437e-19)
(-3.10128 -0.0258413 -1.23943e-19)
(-3.11341 -0.0300449 -4.96897e-19)
(-3.1236 -0.0338936 1.92262e-25)
(-3.1387 -0.037793 6.11061e-23)
(-3.15483 -0.0419549 -6.10986e-23)
(-3.16799 -0.0463847 -1.5099e-39)
(-3.18227 -0.0507763 -1.23047e-35)
(-3.19812 -0.0552677 2.93874e-39)
(-3.21294 -0.0598706 5.06997e-19)
(-3.22913 -0.0644375 -6.19666e-23)
(-3.24139 -0.0694102 1.43493e-42)
(-3.25446 -0.0742029 0)
(-3.26499 -0.0789648 -1.02639e-18)
(-3.27885 -0.0838744 5.14795e-19)
(-3.29061 -0.0892368 -1.034e-18)
(-3.30371 -0.0942971 2.35099e-38)
(-3.31889 -0.0989131 1.0407e-18)
(-3.33233 -0.104545 -2.35099e-38)
(-3.34681 -0.110206 -1.04663e-18)
(-3.35764 -0.115453 1.04727e-25)
(-3.37056 -0.120993 -6.40402e-23)
(-3.38308 -0.126435 -5.25791e-19)
(-3.40775 -0.135166 1.76324e-38)
(-3.42527 -0.139877 2.04242e-36)
(-3.43419 -0.146576 -8.80916e-20)
(-3.44215 -0.153084 -7.47526e-19)
(-3.46183 -0.160394 5.17432e-28)
(-3.47156 -0.165458 9.45608e-20)
(-3.47388 -0.170718 1.05851e-18)
(-3.48535 -0.177645 -1.05978e-18)
(-3.49761 -0.183986 -6.47625e-23)
(-3.51697 -0.193451 -2.96193e-23)
(-3.52582 -0.199376 -1.61887e-19)
(-3.53259 -0.205306 2.35099e-38)
(-3.53876 -0.211975 1.06419e-18)
(-3.54531 -0.219257 -1.29907e-22)
(-3.54855 -0.226349 9.79907e-36)
(-3.55455 -0.233527 1.30895e-22)
(-3.55913 -0.240992 -1.07432e-18)
(-3.56491 -0.24811 -6.56512e-23)
(-3.56708 -0.25604 2.16072e-18)
(-3.56918 -0.263308 -2.16819e-18)
(-3.56636 -0.270785 -1.32597e-22)
(-3.56742 -0.278715 2.17823e-18)
(-3.56686 -0.286352 -2.18305e-18)
(-3.56907 -0.294699 -9.18355e-41)
(-3.57105 -0.302904 -2.19511e-18)
(-3.57372 -0.311332 3.76371e-25)
(-3.57778 -0.320304 4.41438e-18)
(-3.57879 -0.329086 1.34951e-22)
(-3.58456 -0.338385 6.78215e-23)
(-3.58918 -0.347661 2.22469e-18)
(-3.59337 -0.35741 -1.35798e-22)
(-3.59808 -0.367334 -2.23158e-18)
(-3.60374 -0.376976 2.23436e-18)
(-3.60849 -0.387832 1.36811e-22)
(-3.61628 -0.398131 -1.36882e-22)
(-3.62471 -0.409444 -2.24785e-18)
(-3.63262 -0.421072 4.50243e-18)
(-3.64069 -0.432683 1.37566e-22)
(-3.65088 -0.444593 2.2584e-18)
(-3.65662 -0.456741 -2.25798e-18)
(-3.6642 -0.468992 -2.25864e-18)
(-3.67441 -0.482224 1.77468e-24)
(-3.68426 -0.495798 -3.03632e-18)
(-3.69057 -0.509194 2.2638e-18)
(-3.70104 -0.523145 0)
(-3.70554 -0.538195 1.88079e-37)
(-2.82602 -0.291628 -6.63761e-23)
(-2.8203 -0.292146 5.31316e-19)
(-2.81296 -0.292017 0)
(-2.80928 -0.29254 -3.52648e-38)
(-2.80419 -0.293539 5.04444e-19)
(-2.79799 -0.293255 9.90585e-19)
(-2.79545 -0.294318 4.86411e-19)
(-2.7909 -0.294505 9.55323e-19)
(-2.78817 -0.294705 -2.88577e-23)
(-2.78595 -0.296121 4.60215e-19)
(-2.78054 -0.296034 4.51532e-19)
(-2.77544 -0.296432 2.67116e-23)
(-2.77248 -0.297334 -4.33221e-19)
(-2.76764 -0.297878 2.5637e-23)
(-2.7625 -0.297967 -2.56362e-23)
(-2.75878 -0.298041 7.17465e-43)
(-2.75635 -0.299226 0)
(-2.75046 -0.299057 2.51335e-35)
(-2.74634 -0.300138 1.67508e-35)
(-2.74026 -0.300023 3.70127e-19)
(-2.73603 -0.300222 1.84969e-23)
(-2.73139 -0.300484 3.50725e-19)
(-2.72745 -0.301323 3.41403e-19)
(-2.72206 -0.301167 -1.13675e-24)
(-2.71821 -0.30248 -2.05663e-23)
(-2.71216 -0.302128 3.14016e-19)
(-2.70691 -0.3025 6.08393e-19)
(-2.70095 -0.303545 -2.94692e-19)
(-2.69564 -0.303111 1.76844e-23)
(-2.6906 -0.303441 -2.35099e-38)
(-2.68562 -0.304111 -5.28409e-19)
(-2.68122 -0.303653 2.5363e-19)
(-2.67811 -0.304503 4.87241e-19)
(-2.67271 -0.305144 -2.33934e-19)
(-2.66713 -0.30466 9.70664e-36)
(-2.66039 -0.306186 -2.13592e-19)
(-2.65591 -0.30588 5.87747e-39)
(-2.64976 -0.305527 1.6116e-23)
(-2.64367 -0.306107 -1.30649e-23)
(-2.64045 -0.306475 -1.71173e-19)
(-4.20047 -1.06282 -4.16421e-18)
(-4.23531 -1.10534 1.23183e-23)
(-4.26972 -1.14852 -4.07576e-18)
(-4.30492 -1.19633 4.02615e-18)
(-4.34267 -1.24649 -3.39671e-34)
(-4.37693 -1.29841 -5.09526e-38)
(-4.40607 -1.35361 3.0197e-35)
(-4.43335 -1.40918 0)
(-4.4655 -1.47465 1.50463e-36)
(-4.49757 -1.54094 -1.43156e-17)
(-4.52377 -1.61166 6.93945e-18)
(-4.54772 -1.68757 4.70198e-38)
(-4.57746 -1.77243 6.44581e-18)
(-4.60764 -1.86457 1.22952e-17)
(-4.64087 -1.97077 -1.87327e-34)
(-4.67705 -2.08422 5.41247e-18)
(-4.72073 -2.2169 4.96116e-18)
(-4.7585 -2.36799 -5.02595e-25)
(-4.81577 -2.53716 -3.82787e-18)
(-4.87848 -2.73991 -3.07804e-18)
(-4.98082 -3.00869 2.15892e-18)
(-5.05785 -3.3079 -1.09361e-18)
(-4.96777 -3.52525 -2.86306e-23)
(-4.66565 -3.64661 -1.07957e-34)
(-4.28957 -3.74686 -3.19414e-18)
(-4.02219 -4.01748 -1.06868e-17)
(-3.81284 -4.39983 -7.89246e-18)
(-3.39683 -4.75644 -7.77384e-22)
(-2.6929 -4.79092 -2.67519e-22)
(-1.75308 -4.33126 1.8178e-17)
(-0.794552 -3.27676 -1.07688e-17)
(-0.0826756 -0.0578206 5.15698e-22)
(-0.069032 0.03454 -1.81334e-23)
(-0.726507 2.98857 2.20182e-17)
(-1.70335 4.20264 1.88857e-17)
(-2.7173 4.83316 3.01244e-17)
(-3.46352 4.84829 -8.03717e-22)
(-3.8938 4.49391 8.0885e-18)
(-4.0747 4.07013 1.09243e-17)
(-4.14899 3.62492 3.25519e-18)
(-4.10256 3.21877 -1.45881e-18)
(-4.03993 2.86529 -3.60266e-23)
(-3.99828 2.61326 1.20258e-18)
(-4.09369 2.47357 -2.20686e-18)
(-4.33116 2.43071 3.03173e-18)
(-4.56663 2.40541 0)
(-4.70774 2.34113 4.33392e-18)
(-4.76725 2.23805 -4.86761e-18)
(-4.7832 2.13053 -1.89912e-22)
(-4.7814 2.02974 4.5139e-34)
(-4.78713 1.93695 -1.21433e-17)
(-4.79785 1.85787 -3.79716e-22)
(-4.82316 1.78962 0)
(-4.85934 1.73082 -6.84841e-18)
(-4.89251 1.67552 1.4106e-17)
(-4.89263 1.61507 3.62138e-18)
(-4.86671 1.54699 -3.7142e-18)
(-4.80837 1.47652 2.29311e-22)
(-4.74352 1.40718 3.76158e-37)
(-4.67542 1.34238 3.94709e-18)
(-4.60162 1.27896 -4.01588e-18)
(-4.53464 1.22002 4.07051e-18)
(-4.46957 1.16656 -1.38461e-23)
(-4.40852 1.11541 4.16576e-18)
(-4.34953 1.0683 -4.1991e-18)
(-4.29403 1.02442 2.0405e-24)
(-4.23993 0.983117 1.90582e-24)
(-4.1896 0.943933 -5.24749e-22)
(-4.14333 0.908114 5.27769e-22)
(-4.09901 0.87403 1.42717e-24)
(-4.05042 0.84043 -2.78235e-22)
(-4.00757 0.809313 -1.52891e-34)
(-3.96835 0.780406 -1.88079e-37)
(-3.93461 0.753817 -4.42657e-18)
(-3.89678 0.727367 4.44691e-18)
(-3.86096 0.701914 -4.46301e-18)
(-3.82527 0.677807 -8.94291e-18)
(-3.79553 0.655691 1.88079e-37)
(-3.76914 0.634867 -4.48454e-18)
(-3.74364 0.614981 -4.49005e-18)
(-3.71898 0.5956 2.74917e-22)
(-3.69461 0.577008 4.50945e-18)
(-3.67116 0.559094 2.75137e-22)
(-3.64926 0.541995 0)
(-3.63083 0.526308 0)
(-3.61602 0.512201 3.36549e-39)
(-3.59807 0.497754 -2.06517e-23)
(-3.58716 0.482349 4.50708e-18)
(-3.56968 0.468509 -7.79628e-25)
(-3.55368 0.454731 2.25141e-18)
(-3.54174 0.442252 -2.71833e-38)
(-3.53155 0.430204 2.24975e-18)
(-3.52212 0.41841 4.49717e-18)
(-3.51127 0.407004 -4.49365e-18)
(-3.50334 0.395974 2.73416e-22)
(-3.49588 0.384718 -4.47809e-18)
(-3.488 0.37496 1.36592e-22)
(-3.48248 0.36444 -2.23248e-18)
(-3.47649 0.355062 2.23125e-18)
(-3.47055 0.34535 -1.35875e-22)
(-3.46575 0.335959 1.35909e-22)
(-3.46019 0.326863 9.95482e-42)
(-3.45762 0.31833 1.35298e-22)
(-3.45661 0.309887 -4.42836e-18)
(-3.44976 0.30081 3.03095e-25)
(-3.44385 0.292401 2.20455e-18)
(-3.43889 0.283971 6.4135e-35)
(-3.43567 0.275917 -1.38444e-22)
(-3.4326 0.268324 -2.18924e-18)
(-3.42124 0.259834 -1.33193e-22)
(-3.41636 0.252438 2.17458e-18)
(-3.41403 0.24484 -1.08364e-18)
(-3.41542 0.237871 -6.59758e-23)
(-3.41494 0.231236 1.08008e-18)
(-3.41631 0.224377 1.31651e-22)
(-3.41597 0.217741 -3.10097e-35)
(-3.41587 0.211649 -1.30769e-22)
(-3.40509 0.203923 -1.07039e-18)
(-3.4025 0.197714 0)
(-3.38966 0.191702 1.0033e-18)
(-3.36596 0.182359 1.0676e-18)
(-3.35579 0.176088 -6.50858e-23)
(-3.34215 0.169715 1.06507e-18)
(-3.32906 0.163123 -1.17549e-38)
(-3.31823 0.157248 -1.16106e-34)
(-3.31445 0.151245 -6.44994e-23)
(-3.31257 0.145842 1.05527e-18)
(-3.31735 0.141252 4.74145e-20)
(-3.31288 0.137726 0)
(-3.27938 0.127757 5.87747e-39)
(-3.26575 0.122297 5.23029e-19)
(-3.26183 0.117187 -6.3637e-23)
(-3.25635 0.112019 1.42546e-25)
(-3.25172 0.107229 1.03904e-18)
(-3.24763 0.101957 0)
(-3.2387 0.0966174 -5.17347e-19)
(-3.23023 0.0917749 -5.15935e-19)
(-3.22839 0.0870067 1.03003e-18)
(-3.22112 0.0823202 -5.14249e-19)
(-3.21225 0.0774317 5.13471e-19)
(-3.20365 0.0727343 5.87747e-39)
(-3.19177 0.0681738 0)
(-3.18269 0.0636249 -6.19521e-23)
(-3.17516 0.0592002 -5.06489e-19)
(-3.16865 0.0549294 -8.81621e-39)
(-3.16037 0.0505276 2.51468e-19)
(-3.15569 0.0461976 2.93874e-39)
(-3.14968 0.0418632 -6.0777e-23)
(-3.14576 0.0378246 6.07805e-23)
(-3.14012 0.0341352 4.9529e-19)
(-3.13454 0.0303275 2.46979e-19)
(-3.12801 0.0263192 1.2289e-19)
(-3.12234 0.022299 5.99378e-23)
(-3.11678 0.0184964 1.2207e-19)
(-3.11149 0.0148296 2.05574e-36)
(-3.10677 0.0112855 6.06092e-20)
(-3.10218 0.00745573 -4.59177e-41)
(-3.09633 0.00406628 1.43493e-42)
(-3.09224 0.000444967 -3.75206e-21)
(-3.08701 -0.00297526 0)
(-3.08114 -0.00641608 5.96394e-20)
(-3.07462 -0.0100334 -3.39791e-39)
(-3.06801 -0.0130684 -5.9187e-20)
(-3.06418 -0.0165021 -1.17944e-19)
(-3.06017 -0.0197498 0)
(-3.05718 -0.0228003 -1.17105e-19)
(-3.05227 -0.0259179 -1.16688e-19)
(-3.0466 -0.0289789 -1.16199e-19)
(-3.04314 -0.03203 3.67342e-40)
(-3.04043 -0.0351526 0)
(-3.03878 -0.0381178 -2.29556e-19)
(-3.0388 -0.0411511 5.56926e-23)
(-3.03689 -0.0442556 -2.27745e-19)
(-3.03443 -0.0473385 8.81621e-39)
(-3.03165 -0.0500285 4.5128e-19)
(-3.03211 -0.0527596 3.40893e-37)
(-3.03214 -0.055339 5.45205e-23)
(-3.0331 -0.058455 -5.45375e-23)
(-3.03259 -0.0613662 4.44122e-19)
(-3.03213 -0.0644385 4.42183e-19)
(-3.03162 -0.0669412 -4.62263e-35)
(-3.03304 -0.0698493 -4.37902e-19)
(-3.03517 -0.0724847 5.30954e-23)
(-3.03471 -0.0752853 -5.30913e-23)
(-3.03628 -0.0780192 0)
(-3.03712 -0.0803284 -9.94752e-36)
(-3.03961 -0.0829825 2.93874e-39)
(-3.04338 -0.085711 -4.2502e-19)
(-3.04882 -0.0885885 1.43058e-35)
(-3.05126 -0.0911624 4.21136e-19)
(-3.05384 -0.0938454 4.19194e-19)
(-3.05649 -0.0963734 4.17148e-19)
(-3.06101 -0.0989035 7.62235e-39)
(-3.06534 -0.10187 4.13262e-19)
(-3.06821 -0.104099 -4.11533e-19)
(-3.07193 -0.106499 -8.18961e-19)
(-3.07639 -0.109297 4.07712e-19)
(-3.07985 -0.112022 -4.06009e-19)
(-3.08393 -0.11406 4.03896e-19)
(-3.08836 -0.117072 -8.03384e-19)
(-3.09071 -0.119365 -4.89576e-23)
(-3.09332 -0.121667 4.84843e-23)
(-3.09757 -0.124275 -7.9245e-19)
(-3.10016 -0.126436 7.88271e-19)
(-3.10585 -0.128946 -4.79819e-23)
(-3.10996 -0.131032 1.56018e-18)
(-3.11505 -0.134082 -8.6105e-35)
(-3.11659 -0.135896 7.73262e-19)
(-3.11869 -0.138616 -7.69423e-19)
(-3.12098 -0.14073 4.65858e-23)
(-3.12439 -0.143093 -2.31548e-25)
(-3.12734 -0.145314 -7.57556e-19)
(-3.1303 -0.147469 -8.88321e-35)
(-3.13292 -0.150018 -2.59613e-35)
(-3.13415 -0.151646 4.54231e-23)
(-3.13884 -0.154379 7.42874e-19)
(-3.13994 -0.156161 7.39037e-19)
(-3.13955 -0.158288 -2.38876e-25)
(-3.14272 -0.160924 7.30835e-19)
(-3.1422 -0.162412 7.2752e-19)
(-3.14311 -0.164958 4.40256e-23)
(-3.14331 -0.166206 -4.63384e-23)
(-3.1451 -0.168957 7.15701e-19)
(-3.14532 -0.170347 7.11919e-19)
(-3.14518 -0.172452 -7.08072e-19)
(-3.14513 -0.174469 -4.31156e-23)
(-3.14432 -0.176143 8.5316e-23)
(-3.14523 -0.178057 -4.53275e-25)
(-3.14388 -0.179916 6.93063e-19)
(-3.14346 -0.181845 8.3977e-23)
(-3.14277 -0.183796 -8.40259e-23)
(-3.14072 -0.185259 -6.82609e-19)
(-3.1398 -0.187219 1.13489e-24)
(-3.14059 -0.188561 0)
(-3.13869 -0.190514 -6.70621e-19)
(-3.13821 -0.192069 -4.08118e-23)
(-3.13582 -0.193949 6.62912e-19)
(-3.13472 -0.195956 4.01934e-23)
(-3.13143 -0.196894 6.56838e-19)
(-3.12804 -0.198652 -2.32841e-25)
(-3.12675 -0.200592 -3.97388e-23)
(-3.12588 -0.201931 -3.93006e-23)
(-3.12315 -0.20313 7.82892e-23)
(-3.12276 -0.204914 6.36827e-19)
(-3.12227 -0.206408 6.33139e-19)
(-3.11859 -0.208134 -3.87567e-23)
(-3.11729 -0.209586 3.7856e-23)
(-3.11445 -0.211214 -1.1411e-22)
(-3.11106 -0.21215 7.55208e-23)
(-3.10887 -0.213713 -6.14378e-19)
(-3.10766 -0.214964 -6.10734e-19)
(-3.10578 -0.216513 6.06931e-19)
(-3.10337 -0.217434 7.33444e-23)
(-3.10297 -0.219062 -7.32646e-23)
(-3.1018 -0.220611 1.43493e-41)
(-3.099 -0.222415 3.59472e-23)
(-3.09516 -0.223443 -2.36763e-25)
(-3.09307 -0.22494 -5.83644e-19)
(-3.08961 -0.225849 3.49976e-23)
(-3.08785 -0.227751 -1.05555e-22)
(-3.08564 -0.227936 5.719e-19)
(-3.08265 -0.229902 -4.89627e-25)
(-3.08037 -0.23053 1.12722e-18)
(-3.07838 -0.232166 -5.59783e-19)
(-3.0765 -0.23344 5.56481e-19)
(-3.07172 -0.234228 -6.76806e-23)
(-3.07047 -0.235641 1.55165e-36)
(-3.06834 -0.237271 -1.08905e-18)
(-3.06642 -0.238168 0)
(-3.06265 -0.239626 1.07377e-18)
(-3.05952 -0.240191 -1.18895e-24)
(-3.05727 -0.241403 3.22782e-23)
(-3.05686 -0.242952 2.1016e-18)
(-3.05475 -0.243831 -1.04398e-18)
(-3.05034 -0.244853 1.03638e-18)
(-3.04808 -0.245565 6.25033e-23)
(-3.04617 -0.247277 2.03952e-18)
(-3.04461 -0.248237 -4.8817e-25)
(-3.04211 -0.249535 -3.10274e-23)
(-3.04006 -0.250634 9.96562e-19)
(-3.03833 -0.251471 9.88831e-19)
(-3.03617 -0.252463 5.969e-23)
(-3.0345 -0.253709 -5.96861e-23)
(-3.02958 -0.25438 -7.18462e-35)
(-3.02639 -0.25534 1.91528e-18)
(-3.0227 -0.256636 8.50794e-23)
(-3.02194 -0.257882 -5.98265e-23)
(-3.01919 -0.25877 -9.35868e-19)
(-3.01443 -0.259539 9.28156e-19)
(-3.01161 -0.260323 -9.1998e-19)
(-3.00798 -0.260808 9.11128e-19)
(-3.00738 -0.262159 5.73692e-23)
(-3.00645 -0.26328 8.97535e-19)
(-3.00102 -0.263892 8.89997e-19)
(-2.99766 -0.264921 5.36255e-23)
(-2.99253 -0.265898 8.75052e-19)
(-2.9875 -0.266103 8.67274e-19)
(-2.98322 -0.267055 -4.70198e-38)
(-2.97952 -0.267789 -8.50277e-19)
(-2.97609 -0.268266 -8.41933e-19)
(-2.97351 -0.269516 -8.34332e-19)
(-2.97068 -0.269842 -2.35099e-38)
(-2.96598 -0.271512 1.05248e-38)
(-2.96175 -0.271495 0)
(-2.9576 -0.272336 -1.60789e-18)
(-2.95381 -0.273155 7.9677e-19)
(-2.94875 -0.273591 -7.88194e-19)
(-2.94694 -0.274668 -4.7538e-25)
(-2.94164 -0.275053 -7.73008e-19)
(-2.93924 -0.276022 4.69416e-23)
(-2.93498 -0.276688 -2.0089e-41)
(-2.93035 -0.277501 -2.27723e-23)
(-2.9237 -0.277329 6.77173e-23)
(-2.91907 -0.278472 -4.49234e-23)
(-2.91644 -0.27908 7.23569e-19)
(-2.911 -0.279493 -7.15079e-19)
(-2.90698 -0.280399 -1.41425e-18)
(-2.90285 -0.280473 4.28801e-23)
(-2.90123 -0.281553 1.3813e-18)
(-2.89747 -0.282407 -6.26215e-23)
(-2.89283 -0.282768 2.07124e-23)
(-2.88669 -0.283098 3.70212e-40)
(-2.8849 -0.284323 3.98726e-23)
(-2.87877 -0.284385 6.49295e-19)
(-2.87551 -0.285007 -1.2813e-18)
(-2.87125 -0.285869 -1.26418e-18)
(-2.86606 -0.286021 1.24755e-18)
(-2.8626 -0.286843 0)
(-2.85868 -0.286983 9.74461e-39)
(-2.85595 -0.288271 -3.63344e-23)
(-2.84963 -0.288153 3.63191e-23)
(-2.84747 -0.288951 -3.5287e-23)
(-2.84334 -0.289972 3.52998e-23)
(-2.83719 -0.289933 0)
(-2.83316 -0.29015 -5.56273e-19)
(-2.8298 -0.290839 6.63343e-23)
(-2.63417 -0.306685 -1.60792e-19)
(-2.62822 -0.307161 8.81266e-24)
(-2.62267 -0.30785 -6.82446e-25)
(-2.59762 -0.308306 0)
(-2.59205 -0.307259 8.25962e-20)
(-2.58476 -0.308406 7.07219e-20)
(-2.57881 -0.307721 6.43747e-24)
(-2.5726 -0.309343 -6.44227e-24)
(-2.56703 -0.308318 7.34684e-40)
(-2.56065 -0.309208 -2.25014e-20)
(-2.55508 -0.308787 -1.02031e-20)
(-2.54778 -0.309185 1.83586e-21)
(-2.54091 -0.309212 1.45933e-20)
(-2.53313 -0.308964 -2.74492e-20)
(-2.5259 -0.30916 -4.0967e-20)
(-2.51874 -0.309014 7.34684e-40)
(-2.51346 -0.309685 -6.76055e-20)
(-2.50515 -0.308382 0)
(-2.4962 -0.309069 1.12104e-44)
(-2.48939 -0.308474 -4.08854e-24)
(-2.48051 -0.308534 1.23013e-19)
(-2.47346 -0.308987 -3.63228e-36)
(-2.46624 -0.308082 -1.51942e-19)
(-2.45786 -0.309025 3.00249e-23)
(-2.44648 -0.30724 -1.0605e-23)
(-2.43651 -0.308261 1.96825e-19)
(-2.42726 -0.307624 2.12835e-19)
(-2.41836 -0.306589 0)
(-2.40903 -0.306566 4.89028e-19)
(-2.39805 -0.306068 -3.29124e-23)
(-2.38625 -0.305862 3.29254e-23)
(-2.37471 -0.305304 1.86426e-23)
(-2.36298 -0.304379 -3.14648e-19)
(-2.35216 -0.304876 3.33019e-19)
(-2.33947 -0.302319 1.42705e-35)
(-2.32523 -0.302185 7.41058e-19)
(-2.31232 -0.302035 -5.46407e-24)
(-2.29975 -0.300893 0)
(-2.28489 -0.299961 -8.64396e-19)
(-2.26934 -0.298121 -4.53645e-19)
(-2.25079 -0.296519 -4.7582e-19)
(-2.23512 -0.295565 -5.95642e-23)
(-2.21721 -0.295283 1.04897e-18)
(-2.19937 -0.291746 -6.86471e-23)
(-2.18005 -0.290783 6.85827e-23)
(-2.16258 -0.289291 -7.50364e-23)
(-2.14167 -0.28706 -6.28084e-19)
(-2.11572 -0.286835 6.57687e-19)
(-2.0886 -0.280758 -4.11003e-23)
(-2.06281 -0.278949 7.19957e-19)
(-2.03392 -0.27611 -7.53309e-19)
(-2.00165 -0.272498 4.45587e-24)
(-1.97098 -0.268946 -2.01829e-22)
(-1.93919 -0.26545 2.11165e-22)
(-1.9022 -0.261216 -2.2096e-22)
(-1.86114 -0.256074 1.13001e-22)
(-1.8185 -0.251237 0)
(-1.77099 -0.245273 -1.0392e-18)
(-1.75557 -0.244076 2.65563e-22)
(-1.86438 -0.262883 3.76141e-26)
(-2.07425 -0.213924 3.05901e-25)
)
;
    }
}


// ************************************************************************* //
