# Wall shear stress
# Time        	patch         	min           	max           
0.000000e+00	aerofoil	(-8.330879e+01 -1.039141e+01 -1.640909e-18)	(-6.221951e+01 1.039141e+01 1.243433e-18)
1.000000e+02	aerofoil	(-4.273133e+00 -3.138898e+00 -1.452436e-17)	(4.142660e+00 7.090297e+00 2.929569e-17)
2.000000e+02	aerofoil	(-5.057853e+00 -4.790919e+00 -1.431560e-17)	(-6.903205e-02 4.848289e+00 3.012444e-17)
3.000000e+02	aerofoil	(-5.180902e+00 -4.820904e+00 -1.455328e-17)	(-3.203712e-02 4.870744e+00 3.008920e-17)
4.000000e+02	aerofoil	(-4.955279e+00 -4.830945e+00 -1.479553e-17)	(-6.990356e-02 4.882012e+00 3.003904e-17)
4.910000e+02	aerofoil	(-4.895345e+00 -4.837674e+00 -1.491648e-17)	(-5.108781e-02 4.887599e+00 3.002134e-17)
