# Wall shear stress
# Time        	patch         	min           	max           
5.000000e+02	aerofoil	(-5.354944e+00 -7.783274e+00 -4.398446e-17)	(1.273326e+00 1.461757e+00 5.544493e-17)
