/*--------------------------------*- C++ -*----------------------------------*\
  =========                 |
  \\      /  F ield         | OpenFOAM: The Open Source CFD Toolbox
   \\    /   O peration     | Website:  https://openfoam.org
    \\  /    A nd           | Version:  10
     \\/     M anipulation  |
\*---------------------------------------------------------------------------*/
FoamFile
{
    format      ascii;
    class       volScalarField;
    location    "300";
    object      k;
}
// * * * * * * * * * * * * * * * * * * * * * * * * * * * * * * * * * * * * * //

dimensions      [0 2 -2 0 0 0 0];

internalField   nonuniform List<scalar> 
96890
(
0.00162583
0.056562
0.501708
1.87946
3.45578
4.51881
5.19475
5.62874
5.91798
6.11389
6.24346
6.32111
6.3536
6.34274
6.28664
6.18357
6.03266
5.82973
5.57032
5.2449
4.84702
4.36754
3.66206
0.00506741
0.176702
1.47757
4.34635
6.50291
7.81282
8.63554
9.20269
9.62832
9.96124
10.2268
10.4362
10.5929
10.6941
10.7331
10.7014
10.5937
10.4112
10.156
9.80942
9.34509
8.69446
7.65022
0.00519195
0.180895
1.5076
4.4056
6.57052
7.88724
8.7177
9.2946
9.7301
10.0738
10.3505
10.5708
10.7378
10.8479
10.8942
10.8677
10.763
10.5803
10.3188
9.95858
9.47647
8.7964
7.74062
0.00116778
0.0404776
0.360268
1.42644
2.82687
3.86199
4.56591
5.06236
5.42572
5.69577
5.89391
6.033
6.11876
6.15282
6.14418
6.09826
5.99772
5.85021
5.65267
5.39789
5.08832
4.72802
4.20187
2.48047e-05
0.000743452
0.0059092
0.032874
0.116206
0.261386
0.480921
0.734572
1.01609
1.31717
1.60988
1.901
2.17882
2.43145
2.66221
2.88537
3.08795
3.25479
3.38503
3.4851
3.55052
3.59613
3.61127
0.00123942
0.0429839
0.382626
1.51064
2.97117
4.03727
4.74806
5.23329
5.57615
5.82188
5.99539
6.11133
6.1779
6.19941
6.17875
6.11625
6.0104
5.85576
5.64486
5.3707
5.03828
4.65164
4.08773
0.00120801
0.0418836
0.372864
1.47682
2.92083
3.98233
4.69548
5.18612
5.5348
5.78628
5.96475
6.08457
6.15447
6.17884
6.1604
6.10049
6.00016
5.85409
5.65058
5.38478
5.06249
4.68843
4.14038
0.00152064
0.0527229
0.466189
1.77136
3.31181
4.36791
5.04753
5.49165
5.79287
5.99936
6.13808
6.22489
6.26828
6.27146
6.23391
6.15232
6.02258
5.83682
5.58949
5.27472
4.89411
4.44382
3.77443
0.0014799
0.0513142
0.454175
1.7352
3.26654
4.32095
5.00346
5.44989
5.75371
5.9634
6.1057
6.19598
6.24272
6.24957
6.21648
6.14048
6.01744
5.83877
5.59778
5.28875
4.91514
4.47571
3.82524
0.00143995
0.0499262
0.442198
1.69856
3.22021
4.27668
4.964
5.41485
5.72284
5.93586
6.08107
6.17395
6.22319
6.23267
6.20262
6.13084
6.01327
5.84125
5.60697
5.30444
4.93841
4.50847
3.86874
0.00139602
0.0484052
0.429201
1.65847
3.16915
4.22829
4.92069
5.37892
5.69365
5.91216
6.06164
6.15763
6.20911
6.22071
6.19282
6.12407
6.01062
5.84452
5.61701
5.32161
4.96368
4.5425
3.91127
0.00134722
0.0467156
0.414796
1.61413
3.11089
4.17457
4.87349
5.34006
5.6626
5.88815
6.04352
6.14402
6.1988
6.21243
6.18647
6.11989
6.0095
5.84826
5.62701
5.33876
4.98906
4.57933
3.9713
0.00129883
0.045037
0.400301
1.56828
3.0507
4.11724
4.82198
5.29722
5.62886
5.86335
6.0262
6.13243
6.19133
6.20726
6.18299
6.11813
6.01026
5.85314
5.63768
5.35671
5.01562
4.61582
4.01995
0.00156737
0.0543368
0.479882
1.81201
3.36596
4.42681
5.10621
5.54668
5.84282
6.04405
6.17798
6.2603
6.29939
6.2982
6.25528
6.16694
6.02968
5.83719
5.5848
5.26589
4.87986
4.42186
3.74389
0.00131567
0.0463811
0.415755
1.54535
2.92765
3.9131
4.55998
5.01084
5.34644
5.60355
5.79388
5.92446
6.0066
6.04345
6.03622
5.97835
5.91071
5.8068
5.63235
5.38992
5.09395
4.74875
4.2386
0.00160738
0.0557364
0.49189
1.84867
3.41564
4.47899
5.15651
5.59267
5.88386
6.0809
6.21132
6.29084
6.3269
6.32141
6.27238
6.1768
6.03242
5.8342
5.5778
5.2554
4.86323
4.39318
3.69311
0.00196984
0.0685526
0.604369
2.18191
3.83651
4.90385
5.55568
5.95386
6.20429
6.35824
6.44445
6.47915
6.47119
6.42458
6.3398
6.21445
6.04503
5.82702
5.5493
5.19865
4.7604
4.21147
3.38093
0.00166832
0.0580881
0.514595
1.91672
3.5062
4.5716
5.24664
5.67893
5.96678
6.16034
6.28669
6.35955
6.38548
6.36641
6.30195
6.19129
6.03443
5.82822
5.56707
5.23996
4.83815
4.34643
3.60752
0.00172847
0.0599872
0.528298
1.95677
3.55724
4.62527
5.29857
5.72761
6.0124
6.20225
6.32366
6.39041
6.40888
6.3817
6.30974
6.19327
6.03281
5.82466
5.56226
5.23297
4.82674
4.32597
3.56894
0.00176965
0.0614295
0.540599
1.99315
3.60406
4.67416
5.3458
5.77275
6.0539
6.23958
6.35515
6.4149
6.42578
6.39133
6.31383
6.19372
6.0314
5.82231
5.55896
5.22753
4.81695
4.3095
3.54445
0.00181127
0.0628732
0.552806
2.02846
3.64822
4.71846
5.38845
5.8129
6.09033
6.27047
6.37921
6.43156
6.43562
6.3962
6.31541
6.1936
6.03053
5.82098
5.55665
5.2231
4.80857
4.2934
3.51318
0.00183645
0.0639173
0.563877
2.06134
3.68985
4.76165
5.4305
5.85107
6.12309
6.29626
6.39778
6.44313
6.44162
6.39883
6.31617
6.19358
6.03014
5.82022
5.55456
5.21847
4.80002
4.28031
3.49539
0.00187298
0.0652344
0.574789
2.09489
3.73099
4.80447
5.46971
5.88435
6.14938
6.31567
6.4108
6.45101
6.44608
6.40111
6.31764
6.19497
6.03117
5.82109
5.55386
5.21545
4.79304
4.2686
3.48209
0.0019266
0.0668554
0.585695
2.1247
3.76664
4.83932
5.50039
5.9094
6.1682
6.32887
6.41939
6.45653
6.44996
6.40443
6.32111
6.1987
6.03455
5.82372
5.55479
5.21415
4.78799
4.25731
3.46503
0.00195288
0.0677616
0.593245
2.14548
3.79413
4.86576
5.52384
5.92744
6.1815
6.33832
6.42633
6.46193
6.45464
6.40933
6.32643
6.20403
6.0392
5.82664
5.55566
5.21253
4.78325
4.24464
3.43187
0.00196257
0.0681809
0.599435
2.16433
3.81665
4.88542
5.54014
5.94089
6.19244
6.34698
6.43365
6.46876
6.46122
6.41594
6.33271
6.20937
6.04273
5.82758
5.55351
5.20693
4.77335
4.2283
3.40225
0.00248385
0.0863285
0.751897
2.58422
4.3275
5.40421
6.03201
6.39539
6.60584
6.71793
6.76066
6.75015
6.69585
6.60141
6.46681
6.28962
6.06638
5.79849
5.4754
5.07806
4.57808
3.94572
3.0342
0.00251994
0.0874606
0.759142
2.6014
4.34693
5.42284
6.04843
6.41004
6.61839
6.7283
6.7685
6.756
6.69964
6.60315
6.46659
6.28767
6.06303
5.79395
5.4689
5.06907
4.5654
3.92704
3.01017
0.00200009
0.0696178
0.613473
2.20952
3.86869
4.9363
5.58676
5.98269
6.23031
6.38178
6.4655
6.49798
6.48787
6.4392
6.35203
6.22402
6.05141
5.8302
5.54927
5.19554
4.75421
4.20139
3.36901
0.00204674
0.071147
0.624298
2.23464
3.89877
4.96581
5.61415
6.00761
6.2529
6.4026
6.48466
6.51532
6.5034
6.45273
6.36338
6.23286
6.05741
5.8333
5.54942
5.19321
4.74906
4.19158
3.3636
0.00209418
0.0726476
0.634712
2.25901
3.92731
4.99565
5.64256
6.0338
6.27723
6.42494
6.50517
6.53378
6.51974
6.4667
6.37482
6.24153
6.06306
5.83591
5.54892
5.18975
4.74272
4.1817
3.34659
0.0020966
0.0729596
0.640609
2.27839
3.9514
5.02227
5.6693
6.05933
6.30093
6.44698
6.52539
6.55203
6.53567
6.48028
6.3858
6.24985
6.06853
5.8384
5.54824
5.18612
4.73636
4.17219
3.33323
0.002119
0.0738216
0.648257
2.30016
3.97985
5.05042
5.69556
6.08472
6.32494
6.46925
6.54553
6.56987
6.55123
6.49349
6.39663
6.25813
6.07389
5.8405
5.54714
5.18215
4.73003
4.16283
3.31829
0.00216131
0.0750332
0.655998
2.31926
4.00529
5.07797
5.72278
6.11048
6.34884
6.49065
6.56461
6.58657
6.56562
6.50561
6.40649
6.26546
6.07823
5.84171
5.54523
5.17735
4.72301
4.15485
3.30893
0.00218717
0.0759783
0.663229
2.33994
4.03208
5.10431
5.74838
6.13397
6.37027
6.50995
6.58189
6.6019
6.579
6.51698
6.41564
6.2721
6.08192
5.84254
5.54308
5.17235
4.71551
4.14589
3.29836
0.00223487
0.0774709
0.672602
2.36273
4.05685
5.12911
5.77214
6.15605
6.39011
6.52774
6.5978
6.61625
6.59189
6.52815
6.42477
6.2787
6.08576
5.84343
5.54097
5.1675
4.70819
4.13714
3.29019
0.00227623
0.0787959
0.68112
2.38352
4.08063
5.15188
5.79325
6.17543
6.40836
6.54487
6.61365
6.63076
6.60491
6.53931
6.43376
6.28509
6.08921
5.84362
5.53823
5.16238
4.70088
4.12593
3.27243
0.00229967
0.0795999
0.687739
2.40149
4.10373
5.17396
5.81418
6.19499
6.42659
6.56192
6.62955
6.64542
6.61788
6.55024
6.44222
6.29061
6.09143
5.84275
5.5349
5.15684
4.69295
4.11659
3.26292
0.0023006
0.0797339
0.691814
2.41585
4.12396
5.19526
5.83452
6.21463
6.4453
6.57958
6.6458
6.66011
6.63062
6.56061
6.44976
6.2951
6.09272
5.8417
5.53203
5.15188
4.68513
4.10553
3.24839
0.00230049
0.0798863
0.696739
2.43258
4.14348
5.21731
5.85471
6.23398
6.46384
6.59712
6.66199
6.67435
6.64253
6.56992
6.45618
6.29848
6.09351
5.84062
5.52925
5.14667
4.67689
4.09636
3.24078
0.00234404
0.0812852
0.705382
2.45211
4.16339
5.23795
5.87605
6.25413
6.48275
6.61455
6.67761
6.68776
6.65358
6.57822
6.46171
6.30132
6.09412
5.83906
5.52563
5.14082
4.66817
4.08412
3.22519
0.00234818
0.0814752
0.708619
2.46559
4.1838
5.2586
5.89707
6.27444
6.50165
6.63167
6.69278
6.70054
6.66373
6.58563
6.46638
6.30346
6.09381
5.83617
5.52082
5.13449
4.65949
4.07329
3.21479
0.002353
0.0818023
0.713962
2.48068
4.20389
5.28005
5.91824
6.29471
6.52033
6.64806
6.70677
6.7122
6.67266
6.59182
6.46987
6.30427
6.09179
5.83207
5.5156
5.12824
4.65075
4.0594
3.19415
0.00239761
0.0832718
0.723129
2.49993
4.2282
5.30369
5.93868
6.31333
6.53731
6.66329
6.71981
6.72304
6.6806
6.59694
6.47223
6.30399
6.08913
5.82815
5.51116
5.123
4.64269
4.04797
3.18139
0.00243781
0.08455
0.731693
2.52034
4.24868
5.32421
5.95769
6.33091
6.55326
6.67725
6.73133
6.73166
6.68684
6.60064
6.4734
6.30303
6.08666
5.82481
5.50701
5.11771
4.63463
4.03279
3.15574
0.00247589
0.0856586
0.738675
2.53865
4.26782
5.34387
5.97701
6.34891
6.56919
6.69063
6.74182
6.73879
6.69121
6.60243
6.47308
6.30117
6.08362
5.82057
5.50137
5.11069
4.62508
4.01743
3.13187
0.00248111
0.0859499
0.742963
2.55418
4.28791
5.36456
5.99719
6.36714
6.5845
6.70263
6.75029
6.7441
6.69359
6.60246
6.47144
6.29826
6.07948
5.81482
5.49438
5.10227
4.61411
4.00161
3.11029
0.00250042
0.0866209
0.748641
2.56846
4.30789
5.38533
6.01606
6.38308
6.59675
6.7111
6.75549
6.7468
6.69399
6.60133
6.46915
6.29472
6.07447
5.80856
5.48748
5.09423
4.60332
3.98609
3.09074
0.00249061
0.0863935
0.749931
2.57537
4.31805
5.39703
6.02727
6.39178
6.60276
6.71503
6.75772
6.74781
6.69412
6.60066
6.46745
6.29174
6.07001
5.80317
5.48152
5.08668
4.59156
3.96746
3.06558
0.00303929
0.105454
0.905464
2.9614
4.74772
5.79938
6.36857
6.65481
6.77948
6.79763
6.73948
6.62254
6.45624
6.24509
5.98936
5.6864
5.33172
4.92326
4.45794
3.91581
3.29874
2.62469
1.78891
0.00304868
0.105644
0.905645
2.96364
4.75009
5.80009
6.36513
6.64777
6.76833
6.78266
6.72083
6.60033
6.4306
6.21602
5.95685
5.65043
5.29223
4.87988
4.41117
3.86704
3.25105
2.58205
1.75312
0.00304995
0.105427
0.902634
2.95962
4.74797
5.7946
6.35665
6.63664
6.75432
6.76578
6.70128
6.5781
6.40551
6.18778
5.92532
5.61552
5.25383
4.83784
4.36597
3.81984
3.20485
2.53943
1.71614
0.00305112
0.10545
0.902774
2.95885
4.7465
5.78942
6.34824
6.62599
6.74144
6.75039
6.68312
6.55676
6.38074
6.15933
5.89307
5.57949
5.21414
4.79441
4.31948
3.77159
3.15799
2.49797
1.68198
0.00303077
0.104986
0.901439
2.95694
4.7425
5.78414
6.34188
6.61716
6.72986
6.73578
6.66547
6.53566
6.35569
6.13012
5.85978
5.54246
5.17354
4.75021
4.27248
3.72309
3.11107
2.45574
1.64735
0.00254402
0.0882978
0.765641
2.6146
4.36125
5.43667
6.06158
6.4208
6.62764
6.73539
6.77378
6.75957
6.70148
6.60332
6.46526
6.28493
6.0591
5.78838
5.46166
5.05895
4.5514
3.90952
2.99177
0.00256252
0.0888727
0.769432
2.62527
4.37492
5.45049
6.07449
6.43138
6.63614
6.74237
6.77932
6.76353
6.70384
6.60407
6.46445
6.28261
6.05525
5.78285
5.45448
5.04918
4.53749
3.88976
2.96756
0.00257421
0.0893289
0.774376
2.64017
4.3905
5.464
6.0855
6.44133
6.64481
6.74972
6.78531
6.76788
6.70653
6.60503
6.46372
6.28024
6.05138
5.77754
5.44757
5.03925
4.52306
3.87174
2.94882
0.00258896
0.0898313
0.779299
2.65152
4.40269
5.4765
6.09748
6.4523
6.65454
6.75795
6.79179
6.77247
6.70919
6.60592
6.46304
6.27808
6.04787
5.77272
5.44074
5.02896
4.50802
3.851
2.924
0.00258646
0.0898587
0.781517
2.66181
4.41527
5.48973
6.1102
6.46368
6.66433
6.76593
6.7978
6.77666
6.71161
6.60674
6.46227
6.27588
6.04427
5.76762
5.43334
5.01784
4.49206
3.83214
2.90508
0.00260294
0.0904228
0.78545
2.67255
4.42862
5.50217
6.12262
6.4745
6.67334
6.77299
6.80289
6.78001
6.71342
6.6071
6.46129
6.27347
6.04047
5.76217
5.42553
5.00617
4.47526
3.8101
2.88063
0.00262061
0.0911301
0.790585
2.6824
4.44185
5.51526
6.13381
6.48381
6.68061
6.77869
6.80714
6.78291
6.71521
6.60765
6.4604
6.27112
6.03659
5.75653
5.41733
4.99371
4.45745
3.78971
2.86149
0.00265342
0.0920241
0.794953
2.69198
4.45199
5.52606
6.1431
6.49193
6.68723
6.78389
6.81159
6.78657
6.71767
6.6086
6.45975
6.26886
6.0327
5.75083
5.40866
4.98048
4.4387
3.76607
2.83642
0.00268954
0.0929789
0.800738
2.70412
4.4639
5.53595
6.15093
6.49857
6.6938
6.79046
6.81735
6.79103
6.72052
6.60964
6.45897
6.26634
6.02851
5.74452
5.39908
4.96617
4.41898
3.74371
2.81626
0.00267889
0.0927922
0.80093
2.70961
4.47184
5.54634
6.16194
6.50953
6.70393
6.799
6.82421
6.79601
6.7232
6.61016
6.45756
6.26319
6.02349
5.73706
5.38825
4.95073
4.39805
3.71849
2.79032
0.00267678
0.0928762
0.805029
2.72105
4.48563
5.55984
6.17479
6.52086
6.71411
6.80755
6.83051
6.79984
6.72498
6.61016
6.45594
6.25986
6.01802
5.72891
5.3768
4.93466
4.37669
3.69547
2.77028
0.00268637
0.0933788
0.809591
2.72848
4.49768
5.57256
6.18725
6.53254
6.72342
6.81433
6.83516
6.80287
6.72651
6.61031
6.45472
6.25688
6.01279
5.72082
5.36533
4.91888
4.35596
3.67141
2.74734
0.00269564
0.0936986
0.813018
2.7393
4.50816
5.58313
6.19667
6.54048
6.72959
6.81925
6.83881
6.80537
6.72804
6.61073
6.45354
6.25361
6.00689
5.71207
5.35286
4.90207
4.33457
3.64434
2.71375
0.00268946
0.0936955
0.81678
2.74977
4.51642
5.59053
6.20347
6.54663
6.73519
6.82424
6.84303
6.80877
6.73025
6.61133
6.45198
6.24949
5.99983
5.70186
5.33878
4.88389
4.31215
3.62043
2.69105
0.00270287
0.0941565
0.820538
2.75925
4.52762
5.60146
6.21338
6.5553
6.74305
6.8311
6.84885
6.81317
6.73282
6.61161
6.44966
6.24436
5.99148
5.69019
5.32354
4.86481
4.28879
3.59335
2.6612
0.00274228
0.095304
0.826049
2.77002
4.54103
5.61437
6.2251
6.5658
6.7526
6.83926
6.85533
6.81761
6.73501
6.61117
6.44633
6.23782
5.98181
5.67711
5.30732
4.84463
4.26444
3.56797
2.63752
0.00277522
0.0962193
0.829708
2.77879
4.55513
5.62908
6.23873
6.57718
6.7622
6.84733
6.86177
6.82179
6.73649
6.60984
6.4422
6.23069
5.97176
5.66379
5.2911
4.82465
4.24022
3.54007
2.61352
0.00278877
0.096699
0.833744
2.78988
4.56689
5.63999
6.24962
6.58769
6.77163
6.85512
6.86748
6.82503
6.73725
6.60789
6.43742
6.22319
5.96142
5.65071
5.27456
4.80468
4.216
3.51268
2.59082
0.00280789
0.0972885
0.838911
2.80211
4.58014
5.65342
6.26179
6.59904
6.7813
6.86276
6.8727
6.82775
6.7372
6.6051
6.43195
6.21501
5.95028
5.63632
5.25641
4.78263
4.19
3.48461
2.56532
0.00281482
0.0976126
0.841351
2.81017
4.59096
5.66652
6.27485
6.61021
6.79027
6.86932
6.87668
6.82928
6.73611
6.60135
6.42553
6.20582
5.93806
5.6207
5.23742
4.75996
4.16349
3.4551
2.53602
0.00280869
0.0975616
0.844463
2.81849
4.60102
5.67643
6.28532
6.62036
6.7984
6.87508
6.87979
6.82979
6.73396
6.59665
6.41819
6.19576
5.92498
5.60431
5.21757
4.73634
4.1361
3.42388
2.50255
0.00280029
0.097586
0.84735
2.82682
4.61491
5.69039
6.29727
6.62981
6.80536
6.87934
6.88161
6.82913
6.73084
6.59106
6.41002
6.18488
5.91117
5.58725
5.19684
4.71163
4.1079
3.39493
2.47732
0.0028563
0.0990478
0.853804
2.84276
4.62789
5.70206
6.3073
6.63705
6.81039
6.88211
6.88213
6.82729
6.72669
6.58455
6.40109
6.17337
5.89667
5.56918
5.17469
4.68563
4.07855
3.36353
2.44735
0.00289699
0.100141
0.860007
2.8569
4.63797
5.71064
6.31401
6.64243
6.8141
6.88403
6.88197
6.82499
6.72209
6.57754
6.39155
6.16104
5.88114
5.54972
5.15111
4.6582
4.04801
3.33082
2.41725
0.00290997
0.100585
0.863494
2.86548
4.64833
5.7204
6.32195
6.64832
6.81815
6.88602
6.88164
6.82229
6.71696
6.56995
6.38142
6.14811
5.86482
5.52921
5.12666
4.62985
4.01658
3.29718
2.38386
0.00294503
0.101546
0.86807
2.87512
4.65921
5.72906
6.32921
6.65428
6.82178
6.88734
6.88057
6.81891
6.71135
6.56217
6.37118
6.13499
5.8482
5.50848
5.10177
4.60084
3.98483
3.26627
2.35867
0.00293057
0.10128
0.8689
2.87775
4.66685
5.73739
6.33526
6.65868
6.82424
6.8877
6.87893
6.81506
6.70536
6.55397
6.36057
6.12137
5.83089
5.48695
5.07561
4.57047
3.9522
3.23243
2.32631
0.00291743
0.101132
0.870361
2.88335
4.67406
5.74357
6.34045
6.66141
6.82542
6.88695
6.87613
6.81042
6.69898
6.54555
6.34954
6.10699
5.81245
5.46374
5.04744
4.5382
3.9181
3.20019
2.29901
0.00290456
0.1008
0.869666
2.8877
4.67956
5.74795
6.34432
6.66387
6.82573
6.8857
6.87346
6.80624
6.69291
6.5371
6.33808
6.09181
5.79282
5.43901
5.01781
4.50465
3.88345
3.16789
2.27108
0.00289518
0.100699
0.872468
2.89295
4.68548
5.75238
6.34705
6.66511
6.82611
6.88493
6.87116
6.80216
6.68679
6.52834
6.32592
6.07549
5.7717
5.41262
4.98665
4.47007
3.84801
3.13344
2.2392
0.00292623
0.101523
0.876025
2.89976
4.69252
5.75939
6.35163
6.66794
6.82718
6.88436
6.86916
6.79837
6.68051
6.5188
6.3124
6.05739
5.7487
5.3845
4.95428
4.43472
3.81205
3.10123
2.21224
0.00295815
0.102361
0.880673
2.90962
4.69698
5.76412
6.35523
6.67082
6.82944
6.88518
6.86795
6.79455
6.67342
6.508
6.29742
6.03778
5.72423
5.35521
4.92125
4.39897
3.77574
3.06839
2.18471
0.00296839
0.102954
0.885697
2.91569
4.70581
5.77168
6.36271
6.67648
6.83261
6.88581
6.86592
6.78948
6.665
6.49573
6.28078
6.01645
5.69815
5.32475
4.88712
4.36232
3.73878
3.0354
2.15652
0.00300297
0.103907
0.889464
2.92354
4.71584
5.77974
6.36906
6.68097
6.83442
6.88504
6.86232
6.78271
6.6547
6.48149
6.26219
5.99332
5.6705
5.29283
4.85166
4.32464
3.70111
3.00095
2.12734
0.00303678
0.104753
0.892844
2.93092
4.72244
5.7847
6.37206
6.68215
6.83372
6.88223
6.85682
6.7741
6.64261
6.4654
6.24176
5.96833
5.64097
5.25903
4.81451
4.2858
3.66266
2.96524
2.09562
0.00304505
0.105034
0.894179
2.93423
4.72621
5.78775
6.37388
6.68209
6.83163
6.87787
6.84992
6.76421
6.6291
6.44758
6.21926
5.94113
5.60935
5.22334
4.77614
4.24618
3.62381
2.92977
2.06513
0.00305061
0.105224
0.89582
2.94029
4.73193
5.79118
6.37553
6.68181
6.82966
6.87353
6.84278
6.75345
6.614
6.42782
6.19473
5.91197
5.57588
5.18622
4.73669
4.20574
3.5841
2.89248
2.03172
0.00303333
0.104867
0.897389
2.94419
4.73494
5.79444
6.37735
6.68196
6.82804
6.86924
6.83475
6.74115
6.59701
6.40592
6.16796
5.88082
5.54111
5.14825
4.69659
4.16464
3.54394
2.85632
2.00084
0.00301586
0.104573
0.898599
2.94629
4.7378
5.7986
6.38023
6.68279
6.82577
6.86329
6.82475
6.72658
6.57755
6.38163
6.1393
5.8484
5.50552
5.10983
4.65604
4.12335
3.50375
2.81889
1.96781
0.00302471
0.104747
0.89933
2.94974
4.74382
5.80255
6.38251
6.68249
6.82234
6.85608
6.81309
6.70984
6.55568
6.35494
6.10852
5.81435
5.46881
5.07039
4.61448
4.08066
3.46244
2.78031
1.93215
0.00302991
0.104796
0.900043
2.95422
4.74902
5.80754
6.3859
6.68287
6.81803
6.84676
6.79818
6.68967
6.53075
6.326
6.07638
5.77965
5.43182
5.03095
4.5732
4.03817
3.42128
2.74302
1.89772
0.00303934
0.105125
0.901363
2.95812
4.75446
5.81035
6.38568
6.67903
6.80907
6.83278
6.77943
6.66645
6.50358
6.29572
6.04357
5.74457
5.39448
4.99119
4.53125
3.99442
3.37844
2.70269
1.86177
0.00303914
0.105219
0.902802
2.96048
4.75374
5.80729
6.37951
6.66887
6.79538
6.8148
6.75779
6.64202
6.47718
6.26773
6.01402
5.71334
5.36127
4.95582
4.49359
3.95455
3.33861
2.66391
1.82569
0.00272032
0.0943666
0.814775
2.74014
4.50178
5.56816
6.15152
6.44062
6.55356
6.55589
6.48724
6.36766
6.21024
6.02303
5.81126
5.57733
5.32299
5.05065
4.76901
4.51694
4.32628
4.12915
3.70961
0.00272682
0.0947731
0.820477
2.75845
4.52554
5.59543
6.18071
6.4721
6.5863
6.5908
6.52384
6.40631
6.25131
6.06706
5.85853
5.62803
5.37677
5.10694
4.82701
4.57643
4.38569
4.18686
3.76197
0.00274393
0.0955346
0.826839
2.77284
4.54215
5.61253
6.19929
6.49202
6.60871
6.61623
6.55275
6.43867
6.28733
6.10684
5.90206
5.67515
5.42689
5.15898
4.87999
4.6307
4.44021
4.23813
3.79983
0.00278388
0.0966357
0.83262
2.78622
4.5594
5.63046
6.21909
6.51434
6.63439
6.64522
6.58522
6.47475
6.32679
6.14967
5.94814
5.7242
5.47803
5.21112
4.93256
4.68395
4.49373
4.28935
3.84439
0.00278779
0.0969005
0.836484
2.79899
4.57641
5.64936
6.24048
6.53914
6.66254
6.67662
6.61961
6.51214
6.36725
6.19345
5.99517
5.77409
5.52989
5.26423
4.9865
4.73834
4.54722
4.34126
3.90096
0.00280326
0.0974322
0.84151
2.81182
4.5937
5.67013
6.26381
6.56538
6.69121
6.70819
6.65413
6.54993
6.40871
6.23875
6.04402
5.826
5.58447
5.32107
5.04465
4.79628
4.60224
4.39338
3.95611
0.00283936
0.0985371
0.848092
2.82846
4.61251
5.68954
6.28536
6.58925
6.7177
6.7381
6.68789
6.58792
6.45106
6.28528
6.09452
5.88013
5.642
5.38094
5.10463
4.85465
4.65699
4.44339
3.99552
0.00287173
0.0994385
0.853033
2.84197
4.62993
5.70812
6.30538
6.61115
6.74288
6.76758
6.72222
6.62715
6.49513
6.33377
6.14717
5.93656
5.7014
5.44091
5.16277
4.91029
4.71032
4.49243
4.03639
0.00288899
0.100101
0.859248
2.85393
4.64353
5.72344
6.32315
6.63265
6.76901
6.79898
6.75887
6.6688
6.54145
6.38446
6.2019
5.99458
5.76075
5.49893
5.21847
4.96401
4.76319
4.54033
4.07077
0.00288391
0.100242
0.863561
2.86457
4.65731
5.74101
6.34389
6.65761
6.79854
6.83361
6.79823
6.71279
6.58972
6.43691
6.25804
6.05308
5.81957
5.55676
5.27525
5.01972
4.81678
4.59034
4.11975
0.00303393
0.104968
0.900927
2.95783
4.74057
5.78072
6.33674
6.60936
6.71959
6.72224
6.6481
6.51396
6.3296
6.09973
5.82534
5.50425
5.13187
4.70519
4.22506
3.67451
3.06433
2.41516
1.61453
0.00305558
0.105687
0.905559
2.96269
4.74053
5.77828
6.33239
6.60235
6.70943
6.70846
6.62982
6.49095
6.30183
6.06764
5.7895
5.46501
5.08946
4.65963
4.17749
3.62623
3.01796
2.37377
1.58141
0.0030562
0.105943
0.908524
2.96225
4.74125
5.77606
6.3275
6.59484
6.69799
6.69244
6.60877
6.46524
6.27198
6.03399
5.7524
5.42473
5.04621
4.61371
4.13009
3.57826
2.97214
2.33387
1.54962
0.00306
0.10594
0.90714
2.96018
4.73946
5.77299
6.32122
6.58443
6.68309
6.67284
6.58494
6.43745
6.24048
5.99917
5.71446
5.38372
5.00243
4.5677
4.08278
3.53071
2.92665
2.29397
1.51889
0.00305661
0.105803
0.906415
2.95907
4.73474
5.76669
6.31231
6.57144
6.66579
6.65134
6.55955
6.40853
6.20829
5.96374
5.67573
5.34194
4.95805
4.52129
4.03518
3.48286
2.88131
2.25402
1.48798
0.00305772
0.105719
0.904848
2.9564
4.72979
5.75886
6.30011
6.55551
6.64625
6.62858
6.53381
6.3795
6.17582
5.92783
5.63642
5.29955
4.91323
4.47463
3.98773
3.43531
2.83658
2.21603
1.46111
0.00305734
0.105571
0.902855
2.95495
4.72529
5.7506
6.28891
6.54077
6.62818
6.60678
6.50833
6.35046
6.14316
5.89149
5.59654
5.25666
4.86819
4.42823
3.94062
3.38834
2.79278
2.17895
1.43499
0.00305194
0.105607
0.904406
2.95089
4.72106
5.74268
6.27703
6.52511
6.60931
6.58499
6.48278
6.32103
6.1098
5.85422
5.55579
5.21323
4.82305
4.38208
3.89397
3.34194
2.75011
2.1442
1.41302
0.00305156
0.105588
0.904576
2.94698
4.71572
5.73448
6.2652
6.5104
6.59109
6.56315
6.45699
6.29118
6.0758
5.81638
5.51471
5.16987
4.77831
4.33651
3.84781
3.29644
2.70903
2.11191
1.3944
0.00307323
0.106098
0.904987
2.94521
4.71019
5.72635
6.25425
6.49605
6.573
6.54107
6.43074
6.26064
6.04106
5.77787
5.47336
5.12668
4.73401
4.29129
3.80215
3.25195
2.66945
2.0807
1.37765
0.00309263
0.106564
0.905496
2.9438
4.7044
5.71738
6.24191
6.48003
6.55338
6.51751
6.40322
6.22889
6.00539
5.73885
5.43191
5.08368
4.68996
4.2464
3.75698
3.20861
2.63168
2.05225
1.36386
0.00306299
0.105634
0.901192
2.9365
4.69386
5.70547
6.2285
6.46372
6.5336
6.49347
6.37491
6.19624
5.9688
5.69931
5.39035
5.04085
4.64605
4.2016
3.71217
3.16619
2.59544
2.0249
1.35075
0.00303723
0.105028
0.899578
2.93291
4.68673
5.69657
6.21613
6.44752
6.51291
6.46832
6.34498
6.16217
5.93141
5.65948
5.34897
4.99821
4.60214
4.15665
3.6678
3.12503
2.56104
2.00047
1.34199
0.0030331
0.104749
0.895828
2.92655
4.67769
5.68661
6.20322
6.4309
6.49141
6.44188
6.31408
6.12747
5.8939
5.62007
5.30813
4.95588
4.55836
4.11211
3.62457
3.08582
2.5288
1.97784
1.33544
0.00302795
0.104437
0.893288
2.92341
4.67271
5.67652
6.18868
6.41125
6.46714
6.41317
6.28172
6.09234
5.85684
5.58139
5.26776
4.91378
4.51473
4.06818
3.58258
3.04858
2.49888
1.95715
1.32981
0.00301619
0.104243
0.893683
2.91745
4.66237
5.66213
6.17062
6.38925
6.44126
6.38379
6.2495
6.0579
5.8206
5.54344
5.22785
4.87172
4.47116
4.0251
3.542
3.01337
2.47123
1.93913
1.32698
0.00301297
0.104125
0.891353
2.90952
4.64923
5.64512
6.15062
6.36597
6.41459
6.35472
6.21845
6.02505
5.78559
5.5059
5.18764
4.82923
4.42746
3.9824
3.50254
2.9797
2.44546
1.92308
1.3256
0.00300094
0.103691
0.887449
2.90084
4.6378
5.63002
6.13165
6.34407
6.39061
6.32852
6.18982
5.99363
5.75113
5.46826
5.14685
4.78602
4.38346
3.94002
3.46423
2.94779
2.42161
1.90955
1.32783
0.00297028
0.102843
0.884171
2.89219
4.62478
5.61537
6.11572
6.32582
6.36965
6.30452
6.16253
5.96276
5.71638
5.42966
5.10507
4.74232
4.33969
3.89859
3.42817
2.9185
2.40033
1.89909
1.33441
0.00296098
0.102472
0.880829
2.8842
4.61543
5.60374
6.10127
6.30871
6.34941
6.28069
6.13482
5.93086
5.68034
5.38995
5.06271
4.69885
4.29724
3.85989
3.39547
2.89252
2.38196
1.89184
1.34448
0.00297688
0.102612
0.877708
2.87842
4.60861
5.59379
6.08726
6.29164
6.32877
6.25592
6.10542
5.89699
5.64258
5.34921
5.02024
4.65623
4.25653
3.82389
3.36546
2.86919
2.36594
1.88621
1.35447
0.00297115
0.102399
0.875229
2.87271
4.60032
5.58233
6.07217
6.27301
6.306
6.22872
6.07394
5.86155
5.60381
5.30814
4.97814
4.61474
4.21785
3.79015
3.33753
2.84776
2.35187
1.88307
1.36713
0.00295923
0.102085
0.873429
2.86565
4.59047
5.56982
6.0564
6.25291
6.2813
6.1994
6.04056
5.82478
5.56449
5.26723
4.93682
4.57459
4.18062
3.75778
3.31134
2.8283
2.33979
1.88156
1.38025
0.00295512
0.101809
0.870758
2.85861
4.58012
5.55459
6.03723
6.22925
6.25358
6.16807
6.00599
5.78761
5.52545
5.22704
4.89659
4.53573
4.14499
3.72736
3.2878
2.81148
2.33004
1.88198
1.39393
0.00294153
0.10132
0.866704
2.84641
4.56348
5.53639
6.0159
6.20476
6.22538
6.13676
5.97199
5.75125
5.48718
5.18772
4.85737
4.49837
4.11156
3.70039
3.26765
2.79764
2.32274
1.88515
1.41176
0.00291133
0.100462
0.862727
2.83548
4.54689
5.51762
5.99458
6.1802
6.19812
6.10674
5.93915
5.71581
5.44972
5.14924
4.81953
4.4631
4.08109
3.67681
3.24989
2.78546
2.31715
1.88955
1.42925
0.00290324
0.100239
0.859795
2.82744
4.537
5.50331
5.9769
6.15932
6.17319
6.07775
5.90657
5.68045
5.41259
5.11165
4.78324
4.43015
4.05333
3.65508
3.23339
2.7747
2.31323
1.89618
1.45011
0.00291445
0.100439
0.858406
2.81953
4.52476
5.48693
5.957
6.13544
6.14613
6.04765
5.87371
5.64529
5.37621
5.0755
4.74902
4.39958
4.02747
3.63431
3.21862
2.76611
2.31173
1.90458
1.4689
0.00289831
0.099959
0.855453
2.80867
4.50938
5.4689
5.93691
6.11221
6.11923
6.01732
5.8406
5.61042
5.34078
5.04094
4.71677
4.3709
4.00335
3.61592
3.20704
2.76044
2.31257
1.91489
1.48951
0.00288909
0.0996325
0.852908
2.80228
4.49639
5.45211
5.91559
6.08792
6.09175
5.98696
5.80794
5.57626
5.30642
5.00792
4.68646
4.34463
3.98245
3.60213
3.19913
2.75765
2.31565
1.92671
1.51051
0.00287432
0.0990009
0.84767
2.78927
4.47993
5.43431
5.89498
6.0639
6.06432
5.9565
5.77547
5.54311
5.2737
4.97706
4.65892
4.32189
3.9659
3.59247
3.19338
2.75628
2.32041
1.94078
1.53501
0.00286455
0.098654
0.844015
2.77786
4.46558
5.41568
5.87276
6.03814
6.03558
5.926
5.74395
5.5115
5.24322
4.949
4.63473
4.30288
3.95254
3.58391
3.18794
2.75556
2.32666
1.95623
1.55729
0.00286633
0.0985651
0.840433
2.76576
4.44852
5.39501
5.84957
6.01236
6.00786
5.89693
5.71432
5.48217
5.21526
4.92375
4.61361
4.28647
3.94027
3.57494
3.18315
2.75612
2.33453
1.97352
1.58197
0.00283028
0.0975145
0.834653
2.75311
4.43114
5.37288
5.82611
5.98756
5.9819
5.87028
5.68719
5.45551
5.19035
4.90186
4.59559
4.27228
3.92955
3.56802
3.18136
2.7595
2.34463
1.99285
1.60965
0.00277544
0.0960086
0.827535
2.73823
4.41444
5.35521
5.80702
5.96671
5.95939
5.8464
5.6627
5.43153
5.16845
4.88325
4.58073
4.2611
3.92227
3.5658
3.18325
2.76582
2.35727
2.01424
1.63915
0.00277784
0.0959969
0.825371
2.7296
4.40091
5.34064
5.79027
5.94784
5.93861
5.82392
5.64011
5.41036
5.14993
4.86814
4.56932
4.25352
3.91886
3.5669
3.18671
2.77345
2.37149
2.03672
1.66864
0.00278532
0.0960013
0.82215
2.71836
4.38591
5.325
5.77218
5.92819
5.91737
5.80242
5.61949
5.3919
5.13457
4.85626
4.56091
4.24851
3.91722
3.56811
3.19031
2.78168
2.38696
2.06089
1.69789
0.00276434
0.0951812
0.815505
2.70315
4.36949
5.30758
5.75309
5.90796
5.89684
5.78276
5.60176
5.37682
5.12246
4.84702
4.5544
4.24467
3.91575
3.56908
3.19489
2.79127
2.40388
2.08585
1.72855
0.00275298
0.0947916
0.811735
2.69359
4.35407
5.2897
5.73535
5.89
5.87971
5.76695
5.58794
5.36522
5.11306
4.83981
4.54933
4.2417
3.91523
3.57203
3.20184
2.80278
2.42206
2.11226
1.75941
0.00273387
0.0941444
0.806469
2.68207
4.34093
5.27555
5.72105
5.87589
5.86625
5.75478
5.57722
5.35601
5.10548
4.83401
4.54547
4.24034
3.9173
3.57819
3.21118
2.81605
2.44175
2.13988
1.79229
0.00271792
0.0936045
0.803479
2.67187
4.32813
5.26251
5.70788
5.86372
5.85484
5.74423
5.56783
5.34818
5.09917
4.82951
4.5434
4.24148
3.92223
3.58635
3.22166
2.83034
2.46257
2.16806
1.82487
0.00270285
0.0931091
0.799584
2.66193
4.31629
5.25059
5.6962
5.8528
5.84475
5.73535
5.56006
5.34163
5.09423
4.82678
4.54346
4.2449
3.92896
3.59545
3.23314
2.84577
2.48468
2.1977
1.85888
0.00267456
0.0923125
0.795363
2.65074
4.30395
5.2391
5.68532
5.84333
5.83621
5.72784
5.55372
5.33667
5.09105
4.82594
4.54555
4.2501
3.93699
3.60581
3.24607
2.86261
2.50805
2.22787
1.89407
0.00268211
0.0925267
0.793515
2.64398
4.29478
5.23083
5.678
5.83655
5.82982
5.72198
5.54879
5.33317
5.08966
4.82724
4.54991
4.25732
3.94699
3.61831
3.26094
2.88101
2.53274
2.25943
1.92864
0.00268691
0.0924625
0.791001
2.63915
4.28712
5.22296
5.6714
5.83089
5.82441
5.71711
5.54511
5.33128
5.09028
4.83085
4.55658
4.26688
3.95942
3.63274
3.27723
2.90072
2.5587
2.29171
1.96321
0.00267444
0.0920405
0.788346
2.63081
4.27733
5.21513
5.66476
5.82495
5.81895
5.71283
5.54259
5.33123
5.09322
4.83691
4.56566
4.2787
3.97359
3.6484
3.29468
2.9216
2.58585
2.32451
1.99644
0.00265919
0.0915281
0.784291
2.62196
4.26806
5.20637
5.65694
5.81895
5.8139
5.7096
5.5418
5.33347
5.09867
4.8454
4.57677
4.29201
3.9889
3.66536
3.31349
2.94385
2.61429
2.35866
2.02887
0.00262648
0.090537
0.779081
2.61109
4.25716
5.19816
5.65012
5.8137
5.81041
5.70848
5.54347
5.33807
5.10615
4.85554
4.58918
4.30648
4.00546
3.68387
3.33389
2.96736
2.64356
2.39351
2.06346
0.00261728
0.0902387
0.776217
2.60255
4.24918
5.1909
5.64459
5.81033
5.80919
5.70975
5.54769
5.34519
5.11585
4.86738
4.60298
4.32233
4.02375
3.7041
3.35562
2.9917
2.67351
2.42915
2.1017
0.00258872
0.0894358
0.771948
2.59326
4.24249
5.18575
5.64174
5.80963
5.81093
5.71418
5.55455
5.35438
5.12724
4.88087
4.61851
4.3402
4.04413
3.72603