/*--------------------------------*- C++ -*----------------------------------*\
  =========                 |
  \\      /  F ield         | OpenFOAM: The Open Source CFD Toolbox
   \\    /   O peration     | Website:  https://openfoam.org
    \\  /    A nd           | Version:  10
     \\/     M anipulation  |
\*---------------------------------------------------------------------------*/
FoamFile
{
    format      ascii;
    class       volScalarField;
    location    "300";
    object      nut;
}
// * * * * * * * * * * * * * * * * * * * * * * * * * * * * * * * * * * * * * //

dimensions      [0 2 -1 0 0 0 0];

internalField   nonuniform List<scalar> 
96890
(
1.29984e-10
2.89872e-08
8.16859e-07
6.17808e-06
1.86152e-05
3.64217e-05
6.02231e-05
8.94218e-05
0.000124512
0.000166349
0.000215716
0.000273396
0.000340175
0.000416987
0.000504934
0.000605971
0.0007236
0.000852738
0.00100792
0.00120256
0.00141793
0.00146881
0.000848897
4.06198e-10
8.91633e-08
2.19855e-06
1.24561e-05
3.01275e-05
5.54467e-05
8.85403e-05
0.000129458
0.000180287
0.000242692
0.000318597
0.000409966
0.000518967
0.000648389
0.000803184
0.000995692
0.00125901
0.00166741
0.00232041
0.00312202
0.00387289
0.00417257
0.00323954
4.16964e-10
9.13925e-08
2.24287e-06
1.26264e-05
3.04946e-05
5.60824e-05
8.94054e-05
0.000130758
0.000182139
0.000245317
0.000322233
0.000414923
0.000525657
0.000657392
0.000815514
0.00101325
0.00128509
0.0017055
0.00236818
0.00317182
0.00393483
0.00390905
0.00314398
9.38957e-11
2.08532e-08
6.03491e-07
5.00826e-06
1.66318e-05
3.44073e-05
5.7661e-05
8.63915e-05
0.000120907
0.000161773
0.000209628
0.000265215
0.000329292
0.000402708
0.000486918
0.000584444
0.000697416
0.000833186
0.00098427
0.00115183
0.00132618
0.00137187
0.000975765
1.98756e-12
3.39262e-10
9.62916e-09
1.41642e-07
8.91715e-07
2.81742e-06
6.44674e-06
1.14835e-05
1.82149e-05
2.69e-05
3.69957e-05
4.8837e-05
6.22238e-05
7.67363e-05
9.26488e-05
0.000110655
0.000130281
0.000150932
0.000172551
0.000195338
0.000219037
0.000243507
0.000270609
9.96042e-11
2.21314e-08
6.37343e-07
5.20427e-06
1.69268e-05
3.44694e-05
5.76241e-05
8.61646e-05
0.000120643
0.000161643
0.000209818
0.000265921
0.000330774
0.000405369
0.000491018
0.00058962
0.000701574
0.00082562
0.000972429
0.0011544
0.0013566
0.00141948
0.000926982
9.70817e-11
2.15728e-08
6.22837e-07
5.12686e-06
1.68247e-05
3.44567e-05
5.76406e-05
8.623e-05
0.000120668
0.000161564
0.000209572
0.000265423
0.000329987
0.000404231
0.000489408
0.00058738
0.00070172
0.000836465
0.000983851
0.0011634
0.00135929
0.00141339
0.00102114
1.22257e-10
2.70865e-08
7.63754e-07
5.89658e-06
1.81614e-05
3.58099e-05
5.93927e-05
8.81766e-05
0.000122954
0.000164352
0.000213089
0.000270022
0.000336125
0.000412422
0.000500206
0.000601513
0.000717589
0.000843256
0.000992415
0.00118042
0.0013867
0.00142
0.000996458
1.18983e-10
2.63724e-08
7.45837e-07
5.80521e-06
1.80239e-05
3.5602e-05
5.91299e-05
8.7977e-05
0.00012269
0.000163987
0.000212587
0.000269333
0.000335173
0.000411183
0.000498745
0.000599918
0.000715904
0.000841372
0.0009898
0.00117717
0.00138424
0.00142286
0.000931399
1.15829e-10
2.56767e-08
7.28036e-07
5.71117e-06
1.78684e-05
3.5445e-05
5.89617e-05
8.78134e-05
0.000122512
0.000163767
0.000212282
0.000268875
0.000334484
0.000410244
0.000497513
0.0005984
0.000713327
0.000838506
0.000985941
0.00117133
0.00137492
0.00141596
0.00102186
1.12297e-10
2.49039e-08
7.08511e-07
5.60541e-06
1.76877e-05
3.52681e-05
5.87501e-05
8.75602e-05
0.000122265
0.000163502
0.000211961
0.000268432
0.000333856
0.000409347
0.000496275
0.000596748
0.000710241
0.000834956
0.000981505
0.00116461
0.00136391
0.00140869
0.00101926
1.08319e-10
2.40338e-08
6.86574e-07
5.48737e-06
1.74664e-05
3.50424e-05
5.84931e-05
8.72535e-05
0.000121946
0.000163148
0.000211546
0.000267911
0.000333164
0.000408361
0.000494902
0.000594833
0.000707162
0.000831722
0.000978469
0.0011614
0.00136354
0.00141595
0.000931143
1.0443e-10
2.31803e-08
6.64518e-07
5.36523e-06
1.72547e-05
3.48609e-05
5.82699e-05
8.6992e-05
0.000121654
0.00016285
0.000211232
0.000267526
0.000332643
0.000407579
0.000493726
0.000593068
0.000704906
0.000829513
0.000976386
0.00115863
0.00135907
0.00141537
0.0010167
1.26075e-10
2.79148e-08
7.8466e-07
6.00604e-06
1.83696e-05
3.61347e-05
5.98822e-05
8.88859e-05
0.00012386
0.000165488
0.000214521
0.000271799
0.00033824
0.000414866
0.000502926
0.000604334
0.000719936
0.000846473
0.000997262
0.00118724
0.00139642
0.00142511
0.000885554
1.03568e-10
2.38982e-08
6.94333e-07
5.42959e-06
1.76417e-05
3.65944e-05
6.14478e-05
9.19126e-05
0.000128037
0.000170172
0.000219064
0.000275398
0.00034003
0.000413906
0.000498239
0.000594268
0.000707422
0.00084482
0.0009995
0.00113784
0.00127793
0.00129787
0.000914744
1.29355e-10
2.86403e-08
8.03151e-07
6.10739e-06
1.85278e-05
3.63313e-05
6.01359e-05
8.93943e-05
0.00012448
0.000166262
0.000215477
0.000272982
0.000339661
0.000416461
0.00050454
0.000605818
0.000722036
0.000850015
0.0010033
0.00119594
0.00140706
0.00144297
0.00100541
1.56606e-10
3.48511e-08
9.64868e-07
6.94855e-06
1.98473e-05
3.82682e-05
6.27638e-05
9.25874e-05
0.000128295
0.000170658
0.000220375
0.000278235
0.000345037
0.000421735
0.00050971
0.000611351
0.000731466
0.000872459
0.00102933
0.00121412
0.00140291
0.00142107
0.00102575
1.33413e-10
2.9762e-08
8.36089e-07
6.27173e-06
1.87825e-05
3.67043e-05
6.06519e-05
9.0009e-05
0.00012535
0.000167481
0.000217164
0.000275135
0.000342118
0.000418981
0.000506826
0.000607666
0.000724044
0.000853292
0.00100771
0.00119772
0.00139931
0.00144172
0.000910941
1.39163e-10
3.08064e-08
8.57429e-07
6.38252e-06
1.8969e-05
3.70133e-05
6.11238e-05
9.06274e-05
0.000126161
0.000168501
0.00021836
0.000276445
0.000343456
0.000420228
0.000507901
0.000608606
0.00072515
0.000855152
0.00100975
0.00119806
0.00139323
0.00142596
0.00101074
1.42477e-10
3.15416e-08
8.75763e-07
6.47841e-06
1.9128e-05
3.72725e-05
6.15057e-05
9.11693e-05
0.000126841
0.00016933
0.000219286
0.000277379
0.000344334
0.000420971
0.000508532
0.000609263
0.000727176
0.000858798
0.00101509
0.0012058
0.00140664
0.00144673
0.00095111
1.45826e-10
3.22731e-08
8.93882e-07
6.57174e-06
1.9293e-05
3.75413e-05
6.18948e-05
9.16658e-05
0.000127456
0.000170006
0.000219942
0.000277971
0.000344821
0.000421364
0.000508899
0.000609749
0.000728272
0.000860536
0.00101669
0.00120578
0.00140189
0.00143738
0.00106041
1.469e-10
3.27187e-08
9.08674e-07
6.65806e-06
1.94654e-05
3.7811e-05
6.22753e-05
9.21085e-05
0.000127947
0.000170486
0.000220378
0.000278309
0.000345046
0.000421571
0.000509146
0.000610128
0.000729276
0.000863203
0.00101977
0.00120856
0.00140396
0.00142931
0.00108313
1.49784e-10
3.33911e-08
9.2515e-07
6.75565e-06
1.96228e-05
3.80213e-05
6.25198e-05
9.2397e-05
0.000128209
0.000170694
0.000220519
0.000278367
0.000345071
0.000421564
0.000509189
0.000610283
0.000729588
0.000867828
0.00102671
0.00121879
0.00142189
0.00145846
0.00105677
1.55105e-10
3.43001e-08
9.42308e-07
6.83575e-06
1.97228e-05
3.8126e-05
6.26107e-05
9.2527e-05
0.000128293
0.000170744
0.000220505
0.000278307
0.000344991
0.000421501
0.000509203
0.00061044
0.000729954
0.000871204
0.00103152
0.0012249
0.00143207
0.00148686
0.000939681
1.57218e-10
3.47562e-08
9.52846e-07
6.87616e-06
1.97526e-05
3.8149e-05
6.26393e-05
9.26361e-05
0.000128402
0.00017083
0.000220575
0.00027841
0.000345124
0.000421717
0.00050957
0.000611052
0.000730895
0.000871617
0.00103053
0.00122024
0.00141848
0.00147048
0.000967603
1.56992e-10
3.4813e-08
9.60334e-07
6.91413e-06
1.97993e-05
3.82126e-05
6.2702e-05
9.2767e-05
0.00012856
0.000170985
0.000220738
0.000278623
0.000345421
0.000422148
0.000510145
0.000611845
0.000732018
0.000871038
0.00102785
0.00121303
0.00140209
0.0014384
0.00106594
1.97948e-10
4.38303e-08
1.17854e-06
7.96861e-06
2.15146e-05
4.079e-05
6.6203e-05
9.68669e-05
0.00013334
0.000176411
0.000226748
0.00028494
0.000351688
0.000427674
0.000513812
0.000611971
0.000727032
0.00087195
0.0010343
0.00120954
0.00137113
0.0013759
0.000884868
2.01827e-10
4.45434e-08
1.19089e-06
8.01783e-06
2.15823e-05
4.08875e-05
6.63217e-05
9.70239e-05
0.000133529
0.000176635
0.000226965
0.000285143
0.000351827
0.00042767
0.000513549
0.000611423
0.00072651
0.000871964
0.00103136
0.00120354
0.00135854
0.00135762
0.00100964
1.59015e-10
3.53922e-08
9.78385e-07
7.0268e-06
1.99666e-05
3.84311e-05
6.29944e-05
9.29151e-05
0.000128707
0.000171192
0.00022104
0.000279017
0.000345963
0.000422818
0.000510944
0.000612681
0.00073275
0.00087621
0.00103571
0.00122509
0.00142343
0.00145498
0.000975807
1.63764e-10
3.63178e-08
9.96727e-07
7.09595e-06
2.00731e-05
3.85985e-05
6.32126e-05
9.3191e-05
0.000129028
0.000171594
0.000221545
0.000279626
0.000346651
0.000423591
0.000511756
0.000613425
0.000733231
0.000877043
0.00103652
0.00122481
0.00141901
0.00146242
0.00104739
1.68665e-10
3.72371e-08
1.0145e-06
7.16313e-06
2.01668e-05
3.87537e-05
6.34673e-05
9.35119e-05
0.000129434
0.000172079
0.000222133
0.000280307
0.000347438
0.000424438
0.000512625
0.000614192
0.000733736
0.000877579
0.00103649
0.00122291
0.00141166
0.00144702
0.00102836
1.6755e-10
3.72629e-08
1.02075e-06
7.2074e-06
2.02404e-05
3.88639e-05
6.36459e-05
9.37817e-05
0.000129767
0.00017249
0.000222613
0.000280867
0.000348062
0.000425142
0.000513322
0.000614819
0.000734317
0.000879296
0.00103903
0.00122683
0.00141783
0.00145698
0.00101543
1.69043e-10
3.76587e-08
1.03147e-06
7.25973e-06
2.03397e-05
3.90383e-05
6.38761e-05
9.40531e-05
0.000130116
0.000172927
0.000223118
0.000281436
0.000348678
0.000425782
0.000514014
0.000615574
0.000735087
0.000879388
0.00103864
0.00122539
0.00141306
0.00144872
0.00107818
1.73322e-10
3.83301e-08
1.04345e-06
7.30582e-06
2.04218e-05
3.91793e-05
6.40648e-05
9.4317e-05
0.000130457
0.000173305
0.000223568
0.000281957
0.000349237
0.000426385
0.000514653
0.000616192
0.000735412
0.000879335
0.00103821
0.00122417
0.00141018
0.00143771
0.00107325
1.75349e-10
3.88033e-08
1.05287e-06
7.35707e-06
2.05209e-05
3.93145e-05
6.426e-05
9.4563e-05
0.000130744
0.000173623
0.000223927
0.000282379
0.000349745
0.000426964
0.000515221
0.00061659
0.000735386
0.000880111
0.00103925
0.00122561
0.00141222
0.00143685
0.00107985
1.80338e-10
3.97254e-08
1.06792e-06
7.4234e-06
2.06133e-05
3.94303e-05
6.4411e-05
9.47711e-05
0.000130991
0.00017392
0.000224256
0.000282748
0.000350167
0.000427439
0.000515669
0.000616888
0.00073557
0.00088095
0.00104048
0.00122762
0.0014164
0.00144372
0.000970092
1.8458e-10
4.05314e-08
1.08137e-06
7.48164e-06
2.07062e-05
3.95585e-05
6.45814e-05
9.49612e-05
0.000131223
0.000174211
0.000224627
0.000283182
0.000350669
0.000427941
0.000516186
0.000617398
0.000736142
0.000880726
0.00103989
0.00122614
0.0014111
0.00143561
0.00105378
1.86478e-10
4.09376e-08
1.09084e-06
7.52598e-06
2.07886e-05
3.96858e-05
6.47566e-05
9.51771e-05
0.000131488
0.000174528
0.000224991
0.000283601
0.000351147
0.000428452
0.000516707
0.000617913
0.0007363
0.000880383
0.00103944
0.00122542
0.00140956
0.00142918
0.000988336
1.8541e-10
4.08353e-08
1.09518e-06
7.55417e-06
2.08478e-05
3.97967e-05
6.48957e-05
9.53502e-05
0.000131718
0.000174833
0.000225338
0.000283998
0.000351582
0.0004289
0.000517094
0.000617998
0.000735582
0.000879849
0.00103891
0.00122432
0.00140653
0.00142371
0.00108919
1.84215e-10
4.07356e-08
1.10184e-06
7.59496e-06
2.09033e-05
3.99123e-05
6.50708e-05
9.553e-05
0.000131946
0.000175112
0.000225692
0.000284403
0.000351983
0.00042928
0.000517317
0.000617805
0.000734951
0.000879858
0.0010389
0.00122398
0.00140661
0.00141788
0.000987476
1.88861e-10
4.16089e-08
1.11575e-06
7.65268e-06
2.09896e-05
4.00202e-05
6.52378e-05
9.57525e-05
0.000132201
0.000175404
0.000226021
0.000284738
0.000352315
0.000429533
0.000517389
0.000617722
0.000735312
0.000880259
0.00103957
0.00122498
0.00140809
0.00142018
0.00104163
1.88312e-10
4.15753e-08
1.11817e-06
7.6772e-06
2.10421e-05
4.0118e-05
6.54042e-05
9.59736e-05
0.000132455
0.00017567
0.000226323
0.00028504
0.000352595
0.000429721
0.000517496
0.000617943
0.000735989
0.000879865
0.00103906
0.00122395
0.00140666
0.00141629
0.000934801
1.87712e-10
4.15927e-08
1.12491e-06
7.71159e-06
2.11234e-05
4.02509e-05
6.55525e-05
9.61535e-05
0.000132689
0.00017593
0.000226569
0.000285281
0.000352796
0.000429855
0.000517565
0.000617975
0.000735593
0.000879745
0.00103924
0.00122365
0.00140409
0.00141456
0.0010243
1.92487e-10
4.25704e-08
1.14012e-06
7.76731e-06
2.12245e-05
4.03916e-05
6.56998e-05
9.62964e-05
0.00013286
0.000176143
0.000226777
0.000285494
0.000352963
0.000429953
0.000517502
0.000617419
0.000733946
0.000878641
0.00104015
0.00122497
0.00140782
0.00142233
0.00091216
1.96683e-10
4.33562e-08
1.15463e-06
7.8284e-06
2.13002e-05
4.0495e-05
6.58386e-05
9.64583e-05
0.000133057
0.000176368
0.000227
0.000285652
0.000353066
0.00042994
0.000517202
0.000616548
0.000732517
0.000877509
0.00103856
0.00122152
0.00140033
0.0014139
0.000906645
2.0074e-10
4.40001e-08
1.1663e-06
7.8816e-06
2.13692e-05
4.05936e-05
6.59958e-05
9.66585e-05
0.000133285
0.000176606
0.000227245
0.000285849
0.000353142
0.000429832
0.000516799
0.000615948
0.000732289
0.000877462
0.00103609
0.00121597
0.00138846
0.00139294
0.000947911
2.00169e-10
4.40045e-08
1.1704e-06
7.9192e-06
2.14541e-05
4.072e-05
6.61574e-05
9.68772e-05
0.000133525
0.000176833
0.000227437
0.000285985
0.00035314
0.000429628
0.000516421
0.00061562
0.000732329
0.000876744
0.00103524
0.00121401
0.00138382
0.00138341
0.000956554
2.01724e-10
4.43414e-08
1.17859e-06
7.95018e-06
2.15056e-05
4.08066e-05
6.62707e-05
9.70716e-05
0.000133728
0.000176995
0.000227537
0.000286002
0.000353027
0.000429345
0.000516052
0.000615201
0.000731631
0.000877091
0.00103668
0.00121614
0.00138635
0.00139067
0.000948939
1.99733e-10
4.40486e-08
1.1788e-06
7.95731e-06
2.14925e-05
4.07787e-05
6.62357e-05
9.71483e-05
0.000133758
0.000176985
0.00022746
0.000285829
0.000352766
0.000428982
0.000515506
0.000614262
0.000730017
0.000874858
0.00103728
0.00121646
0.00138639
0.00139778
0.000902467
2.43526e-10
5.36893e-08
1.39662e-06
8.86709e-06
2.27666e-05
4.23681e-05
6.78791e-05
9.78846e-05
0.000132969
0.00017354
0.000219765
0.000271802
0.000329625
0.000393118
0.000462252
0.00053748
0.000620945
0.000719204
0.000831558
0.000919859
0.000977416
0.000922621
0.000605646
2.4428e-10
5.37098e-08
1.39501e-06
8.86388e-06
2.27527e-05
4.23465e-05
6.78247e-05
9.77703e-05
0.000132752
0.000173171
0.000219192
0.000270941
0.00032837
0.000391334
0.000459747
0.000534029
0.000616231
0.00071256
0.000823057
0.000909409
0.000964856
0.000907553
0.000534916
2.44382e-10
5.34438e-08
1.38817e-06
8.83839e-06
2.27154e-05
4.22806e-05
6.76699e-05
9.75449e-05
0.000132414
0.000172665
0.000218468
0.000269904
0.000326915
0.000389332
0.000457009
0.000530337
0.000611259
0.000705693
0.000814744
0.000899061
0.000951302
0.000891798
0.00058779
2.44477e-10
5.34534e-08
1.38792e-06
8.83092e-06
2.26992e-05
4.22419e-05
6.75872e-05
9.73718e-05
0.000132147
0.000172248
0.000217843
0.000268972
0.000325543
0.000387376
0.000454301
0.00052663
0.000606164
0.000698694
0.000806052
0.000888236
0.000937819
0.000874025
0.000533425
2.41642e-10
5.31183e-08
1.38368e-06
8.81854e-06
2.26735e-05
4.21821e-05
6.75019e-05
9.72317e-05
0.000131904
0.000171847
0.000217207
0.000267999
0.000324125
0.000385343
0.000451486
0.000522779
0.00060095
0.00069169
0.000797518
0.000877753
0.000924422
0.000859031
0.000575012
2.03957e-10
4.49949e-08
1.20078e-06
8.04759e-06
2.16225e-05
4.09498e-05
6.64189e-05
9.71087e-05
0.000133636
0.000176727
0.000227005
0.000285124
0.000351704
0.000427362
0.000513024
0.000610801
0.000726041
0.000871651
0.00103076
0.00120251
0.00135783
0.00135742
0.000918612
2.05494e-10
4.52899e-08
1.20482e-06
8.06933e-06
2.16595e-05
4.09941e-05
6.64939e-05
9.72038e-05
0.000133719
0.00017679
0.000227036
0.000285096
0.00035157
0.000427088
0.000512601
0.000610228
0.000725206
0.000870074
0.00102989
0.00120059
0.00135262
0.00135249
0.001004
2.06182e-10
4.54814e-08
1.21241e-06
8.1118e-06
2.17212e-05
4.10878e-05
6.6602e-05
9.73079e-05
0.000133819
0.000176869
0.000227096
0.000285096
0.000351469
0.000426853
0.000512185
0.000609506
0.000724025
0.000868326
0.001029
0.00119859
0.00134943
0.00134713
0.000909738
2.07367e-10
4.57301e-08
1.22057e-06
8.14093e-06
2.17599e-05
4.11489e-05
6.66847e-05
9.73972e-05
0.000133914
0.000176958
0.000227169
0.000285115
0.000351377
0.00042658
0.00051166
0.000608703
0.000722989
0.000867259
0.00102732
0.00119524
0.00134278
0.00133942
0.00101416
2.06143e-10
4.55939e-08
1.22143e-06
8.16246e-06
2.17979e-05
4.12019e-05
6.6765e-05
9.74875e-05
0.000134001
0.000177038
0.000227194
0.000285068
0.00035121
0.000426236
0.000511113
0.000607975
0.000722236
0.000866489
0.00102545
0.00119167
0.00133788
0.00133039
0.000909132
2.0746e-10
4.58739e-08
1.22577e-06
8.18644e-06
2.18486e-05
4.12552e-05
6.68151e-05
9.75437e-05
0.000134043
0.000177074
0.00022718
0.000284962
0.000350991
0.000425851
0.000510561
0.00060728
0.000721348
0.00086518
0.00102353
0.00118815
0.00133163
0.00132448
0.00099421
2.08869e-10
4.62976e-08
1.23233e-06
8.20354e-06
2.18768e-05
4.12949e-05
6.68705e-05
9.76037e-05
0.000134076
0.000177073
0.000227154
0.000284846
0.000350779
0.000425508
0.000510027
0.000606527
0.000720305
0.000863653
0.00102151
0.0011844
0.00132706
0.00131674
0.000899547
2.12727e-10
4.68468e-08
1.24057e-06
8.22971e-06
2.18915e-05
4.1312e-05
6.68737e-05
9.76313e-05
0.000134114
0.000177071
0.000227114
0.000284779
0.000350613
0.000425195
0.000509502
0.000605755
0.000719293
0.000862345
0.00101934
0.00118037
0.00132173
0.00131066
0.000968444
2.16748e-10
4.74199e-08
1.25064e-06
8.26243e-06
2.19339e-05
4.13821e-05
6.69704e-05
9.76948e-05
0.000134179
0.000177149
0.000227185
0.000284785
0.000350501
0.000424908
0.00050901
0.000605087
0.000718486
0.000861284
0.00101555
0.0011738
0.00131375
0.00129763
0.000881115
2.14763e-10
4.71664e-08
1.24817e-06
8.26901e-06
2.19505e-05
4.1424e-05
6.70515e-05
9.77976e-05
0.000134308
0.000177281
0.00022726
0.000284804
0.000350389
0.00042462
0.000508583
0.000604499
0.000717704
0.000860006
0.00101167
0.00116682
0.0013026
0.00128188
0.000965785
2.13587e-10
4.71178e-08
1.25332e-06
8.29686e-06
2.20107e-05
4.15207e-05
6.71789e-05
9.79089e-05
0.000134409
0.000177369
0.000227287
0.000284709
0.000350166
0.000424269
0.000508076
0.000603826
0.000716694
0.000858223
0.00101037
0.00116483
0.00130324
0.00129103
0.000914955
2.14126e-10
4.74141e-08
1.25994e-06
8.30928e-06
2.20415e-05
4.15623e-05
6.72069e-05
9.79851e-05
0.000134488
0.000177383
0.000227208
0.000284546
0.000349908
0.000423889
0.000507522
0.000603043
0.0007155
0.000856351
0.0010085
0.00116204
0.00130217
0.00129817
0.000782617
2.14866e-10
4.7576e-08
1.26583e-06
8.34017e-06
2.20587e-05
4.15642e-05
6.72135e-05
9.80223e-05
0.000134491
0.000177355
0.00022714
0.000284395
0.000349657
0.000423526
0.000507026
0.000602307
0.000714429
0.000854742
0.00100432
0.00115475
0.00128991
0.00128397
0.000911838
2.13309e-10
4.74747e-08
1.2714e-06
8.3699e-06
2.20883e-05
4.1592e-05
6.72428e-05
9.80316e-05
0.000134488
0.000177334
0.000227086
0.000284302
0.000349484
0.000423235
0.000506573
0.000601653
0.000713444
0.000853169
0.00100002
0.00114789
0.00128192
0.00127415
0.000821341
2.14375e-10
4.77023e-08
1.27657e-06
8.39166e-06
2.21225e-05
4.1644e-05
6.73114e-05
9.80885e-05
0.000134552
0.000177394
0.000227126
0.0002843
0.00034939
0.000422994
0.000506136
0.000600965
0.000712346
0.000851158
0.000994539
0.00113873
0.00126814
0.00125651
0.000900781
2.18591e-10
4.83757e-08
1.28431e-06
8.41642e-06
2.21842e-05
4.17521e-05
6.74356e-05
9.81845e-05
0.000134651
0.000177498
0.000227213
0.000284304
0.000349296
0.000422765
0.000505706
0.000600213
0.000710948
0.000848566
0.00099072
0.0011328
0.0012612
0.00123897
0.000832017
2.22321e-10
4.89324e-08
1.28901e-06
8.43097e-06
2.22137e-05
4.18076e-05
6.75348e-05
9.83079e-05
0.000134764
0.000177586
0.000227275
0.000284302
0.000349172
0.000422454
0.000505146
0.000599241
0.000709311
0.000845952
0.000989451
0.00113129
0.00126194
0.00125288
0.000801482
2.23562e-10
4.91904e-08
1.29599e-06
8.46547e-06
2.22666e-05
4.18736e-05
6.76069e-05
9.83965e-05
0.000134856
0.000177669
0.000227301
0.000284226
0.000348966
0.000422099
0.000504554
0.000598251
0.000707738
0.000843719
0.000985015
0.00112389
0.00125049
0.00124468
0.000849088
2.25154e-10
4.94847e-08
1.3036e-06
8.49923e-06
2.23286e-05
4.19717e-05
6.77228e-05
9.85103e-05
0.000134958
0.000177732
0.000227314
0.000284163
0.000348766
0.000421695
0.000503882
0.000597211
0.000706231
0.000841415
0.000980064
0.00111611
0.00123979
0.00123233
0.000810668
2.25647e-10
4.96487e-08
1.30684e-06
8.5155e-06
2.23365e-05
4.19808e-05
6.77781e-05
9.86004e-05
0.000135035
0.000177768
0.000227256
0.00028399
0.000348481
0.000421205
0.000503119
0.000596087
0.000704469
0.000838358
0.000976363
0.00111063
0.00123262
0.00122812
0.000743228
2.24099e-10
4.95235e-08
1.31034e-06
8.5332e-06
2.23746e-05
4.20271e-05
6.78101e-05
9.86616e-05
0.000135073
0.000177756
0.000227172
0.000283811
0.000348139
0.000420672
0.000502314
0.000594844
0.000702429
0.000834949
0.000972073
0.00110387
0.00122172
0.0012182
0.000847319
2.22118e-10
4.94281e-08
1.31224e-06
8.54427e-06
2.24134e-05
4.20939e-05
6.7884e-05
9.87313e-05
0.00013511
0.000177719
0.000227056
0.000283599
0.000347765
0.000420094
0.000501443
0.000593482
0.000700288
0.000831863
0.000968085
0.00109796
0.00121499
0.0012121
0.000810436
2.28972e-10
5.03615e-08
1.3255e-06
8.6021e-06
2.24634e-05
4.21321e-05
6.79418e-05
9.87825e-05
0.000135137
0.000177688
0.000226953
0.000283381
0.00034738
0.000419481
0.000500503
0.00059206
0.000698231
0.000828943
0.000962788
0.0010898
0.00120358
0.00120047
0.000780735
2.33582e-10
5.10241e-08
1.33655e-06
8.64789e-06
2.25114e-05
4.21899e-05
6.79948e-05
9.88017e-05
0.000135128
0.000177641
0.000226821
0.000283115
0.000346977
0.000418868
0.000499549
0.000590621
0.000696024
0.000825126
0.000956751
0.00108059
0.00118928
0.00118396
0.000733995
2.34623e-10
5.12437e-08
1.34143e-06
8.66815e-06
2.25417e-05
4.22334e-05
6.8055e-05
9.88339e-05
0.00013513
0.000177608
0.000226705
0.00028288
0.000346582
0.000418246
0.000498578
0.000589089
0.000693449
0.000820479
0.000951956
0.00107368
0.00117873
0.00117309
0.000842413
2.38621e-10
5.18263e-08
1.34874e-06
8.69375e-06
2.25875e-05
4.2287e-05
6.80852e-05
9.88636e-05
0.000135122
0.000177551
0.000226567
0.000282628
0.000346136
0.000417557
0.000497552
0.00058744
0.000690688
0.000816132
0.000947363
0.00106763
0.00117209
0.00116853
0.000747997
2.36147e-10
5.15793e-08
1.34749e-06
8.68556e-06
2.2593e-05
4.23157e-05
6.80915e-05
9.88405e-05
0.000135077
0.000177456
0.000226401
0.000282356
0.000345709
0.000416889
0.000496486
0.000585755
0.000688106
0.000812547
0.000941605
0.00105929
0.00115889
0.00115398
0.000804966
2.33737e-10
5.13922e-08
1.34703e-06
8.69239e-06
2.2609e-05
4.2317e-05
6.80932e-05
9.88059e-05
0.000135016
0.000177345
0.000226194
0.000282016
0.000345213
0.000416147
0.000495356
0.000584011
0.000685527
0.000808899
0.000936636
0.00105265
0.00115024
0.00114476
0.000829429
2.31554e-10
5.1051e-08
1.34317e-06
8.69421e-06
2.26019e-05
4.22825e-05
6.80498e-05
9.87712e-05
0.00013493
0.0001772
0.000225978
0.00028171
0.00034476
0.000415439
0.000494223
0.000582216
0.000682743
0.000804484
0.000931338
0.00104605
0.00114258
0.00113834
0.000736852
2.29659e-10
5.08897e-08
1.34605e-06
8.69929e-06
2.26171e-05
4.23159e-05
6.80714e-05
9.87438e-05
0.000134875
0.000177115
0.000225835
0.000281443
0.000344307
0.000414705
0.000493033
0.000580326
0.000679766
0.000799518
0.00092457
0.00103679
0.00112816
0.00111914
0.000824471
2.33286e-10
5.14035e-08
1.35294e-06
8.71863e-06
2.2629e-05
4.23393e-05
6.81073e-05
9.87674e-05
0.000134885
0.000177059
0.00022569
0.000281189
0.000343864
0.000413951
0.000491792
0.000578343
0.000676598
0.000794268
0.00091855
0.00102927
0.00111862
0.00110449
0.000813844
2.37007e-10
5.19138e-08
1.36148e-06
8.75239e-06
2.26527e-05
4.23747e-05
6.816e-05
9.87636e-05
0.000134859
0.000177003
0.000225555
0.000280936
0.000343392
0.000413102
0.0004904
0.000576174
0.000673203
0.000789024
0.000912895
0.0010223
0.00111002
0.0010931
0.000819053
2.3783e-10
5.23675e-08
1.36958e-06
8.76618e-06
2.26919e-05
4.24285e-05
6.82218e-05
9.88397e-05
0.00013488
0.000176954
0.000225403
0.000280603
0.000342791
0.000412123
0.00048886
0.000573814
0.000669681
0.000784108
0.0009074
0.0010157
0.00110277
0.00108317
0.000764322
2.41902e-10
5.29601e-08
1.37609e-06
8.78954e-06
2.27353e-05
4.24712e-05
6.82392e-05
9.88668e-05
0.000134853
0.000176843
0.000225176
0.000280202
0.000342091
0.000411008
0.00048714
0.00057124
0.000666077
0.000779401
0.00090152
0.00100858
0.00109412
0.00107226
0.000712886
2.45999e-10
5.35002e-08
1.38172e-06
8.80838e-06
2.27489e-05
4.24768e-05
6.82267e-05
9.88122e-05
0.000134748
0.00017666
0.000224876
0.000279702
0.000341297
0.00040976
0.000485234
0.000568508
0.000662332
0.000774188
0.000894741
0.00100005
0.00108241
0.00105654
0.000738599
2.46664e-10
5.36418e-08
1.38235e-06
8.81253e-06
2.27565e-05
4.24727e-05
6.82073e-05
9.87669e-05
0.000134654
0.000176478
0.000224556
0.000279162
0.000340444
0.000408428
0.000483241
0.000565643
0.000658235
0.000768167
0.000887425
0.000990768
0.00107024
0.00104
0.000674855
2.47107e-10
5.37353e-08
1.38435e-06
8.82905e-06
2.27778e-05
4.24827e-05
6.82031e-05
9.87168e-05
0.000134567
0.000176298
0.000224243
0.000278603
0.000339516
0.000406966
0.000481072
0.000562545
0.000653818
0.000761968
0.000880225
0.000981489
0.00105682
0.00101965
0.000728996
2.44403e-10
5.34394e-08
1.38661e-06
8.83627e-06
2.27752e-05
4.24905e-05
6.82225e-05
9.86636e-05
0.000134477
0.00017613
0.000223894
0.000277986
0.000338474
0.00040539
0.000478778
0.000559273
0.000649307
0.000756129
0.000874447
0.00097519
0.00105061
0.0010124
0.000670912
2.41642e-10
5.31771e-08
1.38709e-06
8.83217e-06
2.27672e-05
4.24897e-05
6.82147e-05
9.86369e-05
0.000134384
0.00017591
0.000223465
0.000277252
0.000337314
0.000403628
0.000476282
0.000555887
0.000644883
0.000750391
0.00086764
0.000966916
0.00104039
0.00100099
0.000634811
2.42353e-10
5.31878e-08
1.38763e-06
8.83655e-06
2.27833e-05
4.25237e-05
6.82343e-05
9.85882e-05
0.00013424
0.000175621
0.00022297
0.000276429
0.000336054
0.000401813
0.000473749
0.000552478
0.000640395
0.000744164
0.000859717
0.00095652
0.00102577
0.000979879
0.000691132
2.42771e-10
5.31316e-08
1.38807e-06
8.84673e-06
2.27991e-05
4.25262e-05
6.82215e-05
9.85625e-05
0.000134122
0.000175356
0.000222451
0.000275559
0.000334735
0.000399899
0.00047112
0.000549002
0.000635773
0.000737704
0.00085312
0.000948553
0.00101688
0.000968133
0.000617959
2.43528e-10
5.33074e-08
1.38887e-06
8.85524e-06
2.28199e-05
4.25261e-05
6.81521e-05
9.85171e-05
0.000133968
0.000175017
0.000221874
0.000274663
0.000333397
0.000398004
0.00046854
0.000545532
0.000631142
0.000731551
0.000846344
0.000940164
0.00100707
0.000960531
0.000575138
2.43513e-10
5.34187e-08
1.39117e-06
8.86337e-06
2.27933e-05
4.24402e-05
6.8014e-05
9.83776e-05
0.000133726
0.000174618
0.00022122
0.000273681
0.00033202
0.000396148
0.000466059
0.000542227
0.000626809
0.000726183
0.000838784
0.000929947
0.000992772
0.000942985
0.000542792
2.18923e-10
4.80431e-08
1.26112e-06
8.17885e-06
2.11276e-05
3.92742e-05
6.28063e-05
9.16526e-05
0.000125549
0.000163778
0.000206924
0.000255236
0.000308763
0.000367677
0.000432721
0.000506135
0.000593613
0.000707127
0.000868903
0.00114866
0.00161143
0.00173516
0.00110137
2.18665e-10
4.82007e-08
1.26856e-06
8.23096e-06
2.12322e-05
3.94424e-05
6.30518e-05
9.19989e-05
0.000126068
0.000164664
0.000208155
0.000256913
0.000311006
0.000370662
0.000436671
0.000511339
0.00060048
0.000716442
0.000882348
0.00116913
0.00164248
0.00177822
0.00103951
2.19978e-10
4.86259e-08
1.27804e-06
8.27052e-06
2.13079e-05
3.95658e-05
6.32653e-05
9.23386e-05
0.000126548
0.000165197
0.000208963
0.00025808
0.000312668
0.000372978
0.000439859
0.000515754
0.000606732
0.000725264
0.000894329
0.00118631
0.00164154
0.00176223
0.00107774
2.24351e-10
4.92855e-08
1.28738e-06
8.30863e-06
2.13929e-05
3.97176e-05
6.35209e-05
9.27548e-05
0.000127131
0.000165915
0.000209989
0.000259524
0.000314674
0.000375724
0.000443588
0.000520819
0.000613413
0.000733232
0.000903225
0.00119884
0.0016524
0.00175481
0.0011932
2.23825e-10
4.92987e-08
1.29147e-06
8.34082e-06
2.14778e-05
3.98836e-05
6.38022e-05
9.31751e-05
0.000127704
0.00016669
0.000211076
0.000261038
0.000316744
0.000378535
0.000447381
0.000525745
0.000619137
0.000739004
0.000909425
0.00120968
0.00169268
0.00179699
0.00118309
2.25072e-10
4.95669e-08
1.3e-06
8.37876e-06
2.15559e-05
4.00324e-05
6.40412e-05
9.35506e-05
0.000128233
0.000167448
0.000212157
0.00026255
0.000318834
0.000381398
0.000451171
0.000530386
0.000624453
0.000745622
0.000920064
0.00122973
0.00172662
0.0018373
0.00112652
2.2876e-10
5.01924e-08
1.3104e-06
8.43263e-06
2.16664e-05
4.01979e-05
6.42823e-05
9.39052e-05
0.000128703
0.000168145
0.000213183
0.000264034
0.000320935
0.000384262
0.000454873
0.000535104
0.00063108
0.000756459
0.000938597
0.00126058
0.00175043
0.00185913
0.00118922
2.32217e-10
5.07164e-08
1.3179e-06
8.46991e-06
2.17368e-05
4.03197e-05
6.4497e-05
9.42482e-05
0.000129149
0.000168837
0.000214232
0.000265569
0.000323099
0.000387196
0.00045881
0.000540698
0.000639708
0.000769574
0.000956901
0.0012855
0.00177709
0.00188674
0.00113497
2.33606e-10
5.10947e-08
1.32805e-06
8.50351e-06
2.18026e-05
4.04446e-05
6.47266e-05
9.46329e-05
0.000129625
0.000169584
0.000215362
0.000267203
0.000325382
0.000390327
0.000463192
0.000547014
0.000648225
0.000778752
0.000964285
0.00129099
0.0017948
0.00190102
0.00120385
2.32033e-10
5.11207e-08
1.33368e-06
8.52918e-06
2.18613e-05
4.05824e-05
6.50029e-05
9.50644e-05
0.000130173
0.000170435
0.000216596
0.000268968
0.00032783
0.000393702
0.000467845
0.000552936
0.000654163
0.000782373
0.000964814
0.00129116
0.00181723
0.00191632
0.00127816
2.41896e-10
5.3033e-08
1.38241e-06
8.82072e-06
2.2656e-05
4.2144e-05
6.74399e-05
9.70812e-05
0.000131653
0.000171437
0.000216553
0.000266981
0.000322605
0.000383205
0.000448543
0.000518817
0.000595631
0.000684403
0.000788947
0.000867231
0.000912467
0.000844955
0.000504747
2.44838e-10
5.36418e-08
1.39305e-06
8.84619e-06
2.26666e-05
4.2122e-05
6.73777e-05
9.69362e-05
0.000131387
0.000170994
0.000215819
0.000265881
0.000321028
0.000380971
0.000445485