/*--------------------------------*- C++ -*----------------------------------*\
  =========                 |
  \\      /  F ield         | OpenFOAM: The Open Source CFD Toolbox
   \\    /   O peration     | Website:  https://openfoam.org
    \\  /    A nd           | Version:  10
     \\/     M anipulation  |
\*---------------------------------------------------------------------------*/
FoamFile
{
    format      ascii;
    class       volScalarField;
    location    "300";
    object      omega;
}
// * * * * * * * * * * * * * * * * * * * * * * * * * * * * * * * * * * * * * //

dimensions      [0 0 -1 0 0 0 0];

internalField   nonuniform List<scalar> 
96890
(
1.25079e+07
1.95127e+06
614191
304215
185028
122695
86059.3
62945.9
47529.5
36753.5
28943
23120.7
18677.4
15210.9
12450.4
10204.4
8329.53
6699.82
5222.44
3888.07
2786.7
1970.37
1767.58
1.24752e+07
1.98177e+06
672067
348935
211909
139625
97532.3
71086.2
53405.4
41044.8
32099.6
25456.3
20411.5
16493.4
13363.2
10747.8
8414.32
6243.93
4376.81
3042.59
2297.39
2020.57
2361.51
1.24518e+07
1.97932e+06
672178
348921
211804
139549
97507.5
71082.3
53421.4
41064.6
32121.1
25476.6
20427.3
16501.4
13358.7
10725.6
8375.26
6203.63
4357.26
3056.76
2364.92
2250.26
2462.04
1.2437e+07
1.94107e+06
596974
284817
169967
112243
79185.4
58598
44875
35208.3
28116
22747.6
18581.5
15278.6
12618.5
10434.3
8599.93
7021.49
5613.47
4331.09
3220.08
2359.99
1938.8
1.248e+07
2.19138e+06
613678
232092
130318
92775.2
74599.1
63967.8
55783.8
48965.4
43515.3
38925.4
35015.8
31685.8
28734.4
26075.3
23702.3
21564.6
19617.6
17841.4
16209.7
14768
13345
1.24434e+07
1.94222e+06
600345
290269
175531
116718
82397.1
60736
46220.3
36016.9
28574.2
22981.8
18677.1
15293.3
12583.5
10373.2
8529.47
6938.64
5513.1
4219.14
3107.6
2258.19
1915.8
1.24433e+07
1.94151e+06
598654
288055
173604
115333
81461.4
60142.9
45867.8
35814.2
28461.7
22924.1
18650.6
15285.4
12587.5
10385.9
8550.65
6970.75
5556.17
4270.47
3162.92
2315.61
1944.94
1.24381e+07
1.94646e+06
610392
300405
182354
120976
84985.8
62280.2
47114.1
36503
28805.2
23053.3
18648.7
15206.4
12462.7
10228.1
8363.31
6746.53
5281.47
3949.05
2835.78
2016.81
1792.85
1.24379e+07
1.94575e+06
608948
298903
181234
120250
84483
61946.8
46896.2
36365.1
28721
23004.9
18625.4
15199
12464.2
10235.5
8375.95
6765.29
5307.99
3983.04
2874.46
2054.79
1817.51
1.24316e+07
1.94442e+06
607385
297411
180218
119595
84044
61663.2
46712.6
36245.8
28646.2
22962.2
18605.3
15192.6
12467.3
10245.4
8390.85
6786.65
5338.66
4024.32
2918.84
2097.52
1842.49
1.24315e+07
1.94368e+06
605779
295869
179173
118946
83671.2
61431.2
46568
36159.5
28597.9
22939.3
18598.2
15196.7
12478.6
10262.4
8413.04
6814.61
5375.62
4071.21
2967.43
2142.02
1865.99
1.24375e+07
1.94375e+06
604153
294154
178107
118279
83282.8
61201.6
46435.3
36090.8
28568.3
22933.1
18605.9
15213.1
12500.4
10288.4
8442.55
6848.58
5416.87
4119.84
3016.76
2186.58
1897.25
1.24374e+07
1.9429e+06
602393
292304
176804
117418
82752.4
60893.2
46269.4
36004.5
28528.8
22922.8
18612.5
15229.6
12523.1
10316.1
8474.89
6886.85
5464.11
4176.05
3074.68
2241.13
1925.21
1.24321e+07
1.94652e+06
611579
301698
183173
121407
85213.1
62402.3
47172.9
36522.6
28799
23032.8
18624
15181.3
12437.8
10204.5
8340.79
6724.55
5261.17
3934.93
2826.56
2017.34
1803.25
1.27035e+07
1.94078e+06
598783
284617
165951
106932
74209
54517.5
41756.9
32928.8
26448.4
21512.3
17664.9
14601
12115.1
10060
8355.28
6873.42
5528.07
4292.83
3218.24
2386.16
1980.42
1.24261e+07
1.94608e+06
612450
302695
183879
121852
85473.5
62561.9
47267.4
36574.3
28825.9
23044.8
18627.1
15178.9
12431.9
10195.8
8328.96
6708.79
5241.9
3916.62
2816.25
2008.67
1792.45
1.25783e+07
1.96701e+06
626374
314010
191110
126337
88249.1
64305.4
48359.5
37257.1
29243.1
23286.6
18755
15233.7
12438.1
10165.1
8264.27
6610.69
5110.09
3758.12
2671.41
1913.45
1730.37
1.25049e+07
1.95175e+06
615478
305612
185830
123142
86312.4
63092.8
47600.8
36782.3
28949.1
23114.3
18664.6
15195
12434.1
10188.6
8313.38
6683.06
5208.15
3880.25
2785.81
1971.21
1753.22
1.24204e+07
1.94723e+06
616142
306583
186487
123486
86490.6
63199.5
47656.5
36808.3
28959.8
23116.4
18660
15186.3
12423.2
10176.2
8298.33
6665.09
5188.41
3860.04
2768.46
1962.96
1744.84
1.24206e+07
1.94757e+06
617290
307660
187168
123869
86717.1
63318.9
47728.1
36848.6
28981.1
23126.9
18661.5
15182.3
12415.8
10165.9
8285.8
6651.67
5172.45
3842.86
2754.12
1958.09
1743.84
1.24207e+07
1.94816e+06
618433
308664
187723
124180
86894.8
63414.1
47784
36883.8
29004.1
23137.6
18663.7
15179.8
12409.9
10157.6
8276.11
6641.06
5159.69
3828.92
2745.31
1956.14
1736.81
1.25014e+07
1.95354e+06
620549
309601
188184
124454
87048.7
63523.6
47856.5
36931.2
29031
23151
18668.9
15178.5
12405.4
10151.3
8268.67
6633.1
5152.42
3819.11
2739.66
1956.88
1747
1.25046e+07
1.95365e+06
621292
310094
188635
124765
87272
63685.5
47963.9
37000
29071.4
23174.5
18680.4
15184.2
12407.3
10151
8266.54
6630.63
5150.99
3815.52
2733.95
1957.81
1757.34
1.24213e+07
1.94913e+06
621553
310822
189241
125191
87560.7
63866.8
48078.9
37066.4
29112.2
23199.3
18696.1
15194.3
12413.7
10154.5
8267.03
6629.38
5149.17
3814.29
2726.81
1957.42
1761.51
1.24215e+07
1.94963e+06
622603
312018
190004
125643
87788
63986.3
48141.9
37103.1
29134.4
23210.1
18702.4
15198.2
12415.2
10153
8262.75
6622.17
5139.59
3805.23
2717.37
1954.87
1757.88
1.25011e+07
1.95849e+06
624194
313029
190438
125841
87888.5
64040.9
48167.7
37120.1
29146.1
23216.9
18705.3
15198.3
12413.5
10148.6
8254.88
6610.54
5123.36
3786.13
2702.84
1947.37
1747.99
1.2548e+07
1.96961e+06
637988
324300
197627
130334
90829.8
66022.4
49541.3
38081.2
29815.8
23689.7
19039.2
15435.6
12586
10277.6
8344.02
6650.03
5104.66
3723.01
2647.21
1905.06
1721.69
1.24857e+07
1.96349e+06
637457
324452
197808
130450
90915.7
66066.6
49565
38091.6
29821.7
23693.4
19042.4
15439.8
12592
10283.7
8345.42
6644.71
5096.92
3719.57
2648.94
1908.92
1716.32
1.2578e+07
1.96704e+06
627026
314441
191480
126589
88397.8
64388.8
48406.9
37278.4
29250.4
23288.8
18753.1
15229.2
12431.9
10158.7
8258.49
6607.35
5110.67
3761.9
2674.54
1915.21
1728.47
1.24981e+07
1.95901e+06
626348
314918
191814
126783
88520.9
64465.6
48461.7
37312.5
29270.1
23300.1
18760.6
15233.4
12434.4
10160.8
8261.25
6611.71
5116.46
3767.25
2677.05
1913.81
1720.83
1.24162e+07
1.95095e+06
625643
315366
192194
126986
88616.8
64524.4
48497.7
37337
29285
23309.3
18765.2
15235.9
12435.7
10162.2
8263.27
6613.87
5117.56
3766.4
2675.72
1912.22
1720.51
1.25133e+07
1.95797e+06
627588
316118
192663
127259
88768.1
64611
48555.5
37375.8
29312.7
23327.9
18777.3
15242.6
12440.1
10165.4
8264.18
6611.74
5111.96
3758.56
2669.84
1910.31
1719.12
1.25353e+07
1.96028e+06
628482
316839
193012
127428
88894.3
64694.6
48610.2
37410.3
29336.7
23344.1
18788.8
15250.8
12444.5
10166.3
8262.82
6609.02
5108.13
3753.42
2665.74
1908.96
1716.23
1.24699e+07
1.95755e+06
628679
317454
193380
127642
89039.4
64786.7
48666.1
37452.1
29362.9
23360.2
18799.9
15257.6
12448.2
10168
8265.07
6612.78
5112.06
3756.02
2667.13
1909.26
1717.42
1.24733e+07
1.95804e+06
629923
318053
193670
127856
89160.6
64866.5
48723.1
37494.6
29393
23379.6
18810.9
15263.5
12452.2
10172.2
8270.38
6617.73
5114.78
3758.24
2669.33
1909.81
1720.39
1.23926e+07
1.95016e+06
629823
318282
193929
128064
89301.2
64957
48782.8
37532.9
29420.8
23399.8
18825
15272.7
12459.1
10178
8273.52
6616.5
5111.18
3756.74
2670.24
1910.57
1722.33
1.23319e+07
1.94407e+06
629865
318583
194145
128215
89403.3
65031.1
48835.7
37568.6
29442.8
23415.2
18835.2
15280.9
12464
10180
8271.78
6613.12
5111.03
3759.8
2673.67
1911.68
1718.38
1.23321e+07
1.94442e+06
630467
319094
194394
128372
89497.6
65089.1
48875.7
37598.1
29465.9
23432.3
18846.5
15288.2
12467.8
10180.4
8273.03
6619.72
5122.78
3770.31
2679.87
1913.52
1718.79
1.24082e+07
1.95257e+06
631687
319804
194751
128555
89627.2
65176.8
48932.6
37633.4
29492.6
23451.2
18859.4
15296.4
12473.1
10186.3
8282.85
6633
5133.05
3774.85
2682.73
1914.62
1715.91
1.2488e+07
1.96109e+06
632344
320288
195099
128693
89730.4
65256.8
48988.5
37673.6
29518.1
23467.9
18871.7
15304.5
12480.1
10194.9
8291.05
6633.05
5122.04
3761.26
2677.75
1915.09
1719.85
1.24115e+07
1.95355e+06
632206
320425
195292
128858
89818.2
65315.6
49037
37710.4
29544.2
23487.4
18885.3
15314.8
12489.1
10200.9
8287.81
6616.56
5098.99
3744.37
2673.68
1915.93
1719.76
1.24696e+07
1.9597e+06
633730
321158
195662
129074
89924.1
65376.7
49085.7
37750.8
29571.8
23507.4
18899.1
15325.4
12495.5
10200.7
8279.76
6604.85
5092.04
3745.6
2679.25
1919.42
1725.04
1.25352e+07
1.96675e+06
634683
321682
195879
129202
90039.2
65465.2
49139.9
37788.2
29601.5
23528.4
18913.6
15335
12500.6
10201.5
8281.46
6614.57
5107.1
3760.86
2689.69
1923.55
1723.5
1.2456e+07
1.9561e+06
634258
321852
195975
129292
90156.5
65561.5
49204.4
37828.9
29631.9
23548.8
18927.2
15343.4
12506.7
10210.2
8296.43
6633.14
5120.53
3766.64
2693.16
1927.51
1730.34
1.23946e+07
1.95013e+06
633701
321949
196195
129441
90263.8
65633.7
49251.7
37859.8
29653.4
23565.9
18939.3
15352.5
12516.2
10223.1
8309.24
6637.89
5114.46
3752.23
2685.16
1929.41
1729.81
1.23338e+07
1.94678e+06
633348
322099
196414
129598
90349.2
65684
49286.6
37884.6
29667.7
23574.7
18947.6
15360.5
12525.3
10230
8307.69
6626.23
5098.98
3735
2673.4
1930.43
1728.89
1.23951e+07
1.95321e+06
634795
322530
196599
129715
90419.4
65723.8
49312.7
37903.7
29679.8
23582
18954.5
15367.8
12531.3
10230.8
8301.57
6617.81
5094.58
3734.67
2668.62
1931.97
1732.46
1.23953e+07
1.9535e+06
635202
323069
196895
129845
90481.7
65756.4
49329.5
37916.9
29689.6
23590
18961.7
15375.4
12535.8
10232
8302.64
6622.42
5102.64
3744.78
2671.08
1934.14
1738.47
1.24697e+07
1.96133e+06
636183
323649
197241
130006
90540.2
65794
49363.6
37941.3
29709.6
23607.9
18976.1
15386.8
12545.8
10242.8
8314.9
6633.27
5107.63
3744.61
2670.34
1932.7
1742.83
1.24803e+07
1.96415e+06
648324
333977
204070
134485
93582.4
67986.3
50985.4
39170.4
30666.8
24365.3
19586.6
15886
12956.9
10579.7
8586.45
6845.44
5269.23
3867.59
2799.79
1954.02
1728.15
1.24803e+07
1.96694e+06
649204
334351
204267
134543
93616.8
67993.8
50984.9
39167.5
30661.8
24360.8
19583.4
15884.2
12956.8
10580.8
8588.06
6848.38
5275.39
3874.34
2805.81
1960.26
1730.9
1.24802e+07
1.97267e+06
650231
334860
204449
134649
93703
68036.8
51009
39184.5
30674
24372
19593.8
15893.3
12965.4
10588.6
8595.09
6855.44
5281.03
3877.87
2807.43
1959.94
1726.18
1.24802e+07
1.97275e+06
650454
335056
204495
134681
93731.2
68048.3
51014.8
39189.9
30678.6
24377.1
19600.3
15900.1
12971.7
10594.7
8601.87
6861.96
5285.6
3880.93
2810.19
1960.46
1728.74
1.25424e+07
1.97646e+06
651480
335310
204619
134766
93756.1
68055.6
51021.1
39196.3
30687.2
24386.9
19608.8
15908.2
12978.9
10601.9
8608.93
6867.54
5289.96
3884.84
2813.67
1961.45
1726.2
1.24733e+07
1.9624e+06
637618
324892
198069
130594
90978.3
66119.7
49594.7
38111.9
29839.8
23707.5
19054.3
15451.3
12602.3
10289.6
8345.4
6640.71
5093.7
3717.95
2648.33
1908.92
1719.23
1.247e+07
1.96231e+06
638627
325339
198315
130754
91049.1
66163.8
49627.5
38137.7
29860.1
23723.7
19068.3
15463
12611.1
10295.5
8349.69
6646.39
5101.13
3725.08
2653.78
1910.33
1716.64
1.24851e+07
1.96407e+06
638707
325473
198411
130796
91098.7
66195.4
49655.3
38162.4
29878.6
23739
19081.4
15473.8
12619.9
10303.8
8357.98
6653.66
5106.2
3728.23
2656.52
1911.59
1719.88
1.24849e+07
1.96438e+06
638471
325703
198601
130914
91174.5
66247.2
49692.5
38189.6
29897.6
23753.4
19094
15485.8
12631.5
10313.9
8365.1
6656.29
5104.97
3726.1
2656.3
1911.97
1716.79
1.25469e+07
1.97085e+06
639835
326104
198823
131049
91255.4
66302.6
49733.4
38217.4
29920.7
23772.1
19110
15500.2
12643.5
10322.6
8368.84
6656.31
5103.69
3724.79
2656.26
1912.72
1720.64
1.25467e+07
1.97112e+06
640781
326460
198983
131197
91351.4
66375.4
49785.1
38249.5
29945
23792.7
19127.1
15515
12655.3
10330.4
8373.86
6660.08
5107.27
3727.57
2658.48
1913.47
1717.97
1.25466e+07
1.96835e+06
641539
326981
199254
131349
91442.7
66430
49827.1
38281.8
29967
23812.6
19143.7
15528.8
12666.8
10339.4
8380.6
6665.33
5111.23
3730.03
2660.48
1914.54
1721.17
1.24733e+07
1.96436e+06
640798
327105
199490
131492
91552.2
66494.4
49862.1
38311.8
29992
23831
19159.8
15542.5
12678.5
10348.8
8386.98
6668.82
5112.52
3730.59
2661.99
1915.23
1719.54
1.24086e+07
1.96076e+06
640263
327279
199588
131528
91574.1
66519
49887.1
38331.8
30007.9
23846.2
19174.1
15555.5
12689.3
10356.1
8390.57
6669.71
5112.72
3731.2
2663.78
1916.47
1722.69
1.24737e+07
1.96734e+06
641682
327682
199822
131642
91635.4
66561.2
49914.5
38351.6
30028.2
23862.1
19187.9
15567.2
12697.2
10361
8392.72
6670.95
5114.82
3733.75
2666.43
1917.03
1720.62
1.25325e+07
1.97115e+06
642318
327962
199923
131686
91663.5
66601.3
49952.9
38380.6
30052.3
23883.4
19205.1
15580.1
12706.6
10367
8396.92
6675.31
5119.47
3737.58
2669.73
1917.84
1726.06
1.25458e+07
1.96943e+06
642565
328365
200129
131843
91785.7
66668.7
49992.8
38415.9
30083.2
23907.8
19223.6
15594.4
12718.1
10375.5
8403.62
6680.46
5123.59
3740.81
2673.04
1918.91
1729.73
1.25457e+07
1.96945e+06
642281
328446
200348
132009
91886.4
66724.4
50037.6
38449.7
30108.3
23929.3
19241.8
15608.8
12728.2
10382.7
8407.96
6682.8
5124.37
3741.13
2674.68
1919.19
1722.88
1.26083e+07
1.97359e+06
642427
328531
200483
132118
91961.3
66780.8
50080.4
38482.5
30134.1
23949.1
19257.7
15621
12736.5
10387.2
8409.67
6683.15
5124.71
3742.17
2676.8
1920.13
1726.1
1.26081e+07
1.97383e+06
642769
328809
200648
132210
92019.9
66830.5
50114.9
38508
30154.4
23964.7
19270.2
15630.5
12742.9
10390.6
8410.91
6685.23
5129.07
3746.99
2681.08
1920.96
1723.71
1.25452e+07
1.97008e+06
643182
329120
200731
132229
92047.9
66872
50148.8
38531.5
30171.4
23980
19281.7
15637.9
12747.2
10392.7
8413.84
6690.23
5135.09
3751.88
2685.16
1921.86
1727.13
1.24829e+07
1.96637e+06
643681
329593
200956
132338
92091.5
66903.9
50178.1
38557.7
30191.5
23994.9
19292.8
15646.3
12753.1
10397.6
8419.1
6695.16
5138.37
3753
2686.79
1921.87
1726.93
1.24743e+07
1.96581e+06
643325
329560
200988
132408
92155.3
66950.4
50214
38583.6
30213.2
24012.7
19306.3
15654.9
12758.6
10402.3
8423.2
6697.39
5138.11
3751.21
2686.72
1922.16
1724.49
1.2471e+07
1.96603e+06
643534
329690
201051
132438
92201.5
66988.3
50247.4
38613
30234.4
24027.6
19317.2
15663.2
12764.8
10406.7
8425.4
6698.62
5139.98
3753.36
2689.68
1923
1726.75
1.24744e+07
1.96606e+06
643807
330006
201370
132632
92289.8
67040.4
50285.1
38641.9
30259.5
24047.6
19329.9
15672.5
12771.4
10410.9
8429.14
6704.42
5149.14
3763.95
2699.15
1925.19
1727.7
1.25333e+07
1.97001e+06
644461
330297
201513
132760
92391
67101.7
50331.4
38677
30284.5
24064.6
19342.7
15681.2
12777.2
10415.8
8434.99
6712.16
5156.72
3772.47
2708.18
1927.19
1722.3
1.26072e+07
1.9743e+06
645728
330844
201703
132851
92457.6
67150
50369.1
38709.1
30308
24080.2
19354.6
15689.5
12783.1
10421.3
8441.06
6716.55
5157.96
3774.03
2712.46
1928.87
1724.9
1.24744e+07
1.96674e+06
644138
330473
201741
132937
92499.2
67188.5
50396
38731.3
30324.1
24092.2
19364.1
15696.9
12789.3
10426.9
8445.17
6718.41
5160.27
3776.88
2715.96
1929.9
1725.26
1.24024e+07
1.96262e+06
643454
330358
201796
132980
92547.8
67229.9
50426.9
38752.4
30340.9
24106.8
19373.3
15703.1
12794.6
10431.5
8449.61
6725.9
5173.22
3788.58
2723.71
1931.33
1722.89
1.24028e+07
1.96287e+06
643710
330576
201939
133059
92595.4
67267.7
50456.3
38770.8
30355.1
24117.3
19380.5
15708.3
12799.2
10436.6
8457.46
6739.01
5189.49
3801.34
2732.02
1932.49
1716.69
1.23419e+07
1.95935e+06
643614
330711
201988
133124
92662.3
67307.7
50485.9
38790.7
30368.8
24126.8
19389.3
15715.6
12805
10443.6
8467.2
6749.5
5195.8
3803.69
2734.58
1933.3
1718.95
1.241e+07
1.96358e+06
644828
331326
202226
133215
92749.7
67367.9
50521
38813.5
30383.8
24136.4
19395.9
15721.2
12811.2
10450.4
8473.83
6752.78
5192.77
3798.72
2733.01
1933.21
1714.44
1.24816e+07
1.96784e+06
646133
331710
202396
133346
92814.7
67419.1
50552.6
38833.6
30399.2
24149
19405.4
15728.9
12818.1
10457
8478.79
6754.54
5192.67
3799.53
2735.3
1934.56
1713.85
1.25438e+07
1.9745e+06
647474
332141
202663
133543
92915.9
67467.7
50587.2
38858.4
30416.5
24160.4
19413.2
15735.4
12824.3
10463.1
8484.63
6760.87
5202.65
3812.59
2747.07
1938.74
1715.59
1.26064e+07
1.97876e+06
648168
332550
202808
133593
92952.6
67499
50610.4
38872.6
30425.6
24168.9
19421
15742.1
12830.6
10469.1
8490.71
6769.86
5217.66
3832.36
2764.23
1944.32
1710.65
1.25435e+07
1.97502e+06
647495
332594
202922
133633
92974.9
67511.5
50614.7
38881.8
30436.3
24177.2
19427.8
15747.8
12835.5
10473.7
8496.47
6779.2
5231.64
3849.37
2778.99
1950.01
1712.02
1.24812e+07
1.97174e+06
646851
332437
202992
133646
92994
67543.3
50641.5
38898.7
30449.1
24185.4
19433.8
15754
12841.4
10479.1
8502.98
6787.13
5239.74
3856.51
2785.75
1954.19
1714.03
1.24811e+07
1.96598e+06
646694
332606
203015
133687
93007.4
67548.6
50656.9
38912.9
30460.6
24196
19443.3
15761.6
12847.8
10485
8508.75
6790.83
5239.66
3855.05
2787.2
1957.18
1718.44
1.2414e+07
1.96199e+06
646368
332616
203005
133728
93055.5
67575.5
50680.4
38933.1
30475.3
24206.5
19453
15769.7
12855
10491.8
8513.28
6790.89
5238.15
3855.51
2792.46
1961.25
1721.2
1.23447e+07
1.95799e+06
646182
332742
203121
133811
93120.4
67624.8
50714.7
38957.6
30491.6
24219
19462.8
15778.5
12863.4
10498.2
8516.83
6792.96
5242.22
3863.66
2803.63
1967.07
1721.4
1.23449e+07
1.95806e+06
646856
332961
203225
133894
93171.6
67655.1
50734.6
38972.9
30504.3
24230.4
19471.9
15786.3
12869.9
10503.3
8521.81
6799.74
5249.85
3872.71
2812.53
1973.06
1724.63
1.23453e+07
1.95819e+06
647106
333024
203265
133949
93209.3
67686.6
50752.9
38988.2
30515.1
24240.4
19480.6
15794.5
12876.9
10509.3
8528.18
6806.35
5251.62
3872.9
2812.07
1977.97
1722.38
1.24112e+07
1.96235e+06
647183
333194
203437
134017
93244.4
67724.7
50774.9
39000.9
30526.7
24250
19490.4
15801.9
12882.7
10515.1
8533.87
6808.69
5248.67
3867.85
2808.35
1983.41
1727.05
1.24807e+07
1.9665e+06
647829
333586
203668
134107
93298.4
67751.4
50793.2
39015.9
30540.6
24261.6
19499.8
15810.7
12890
10520.8
8537.25
6809.55
5250.15
3867.27
2808.56
1991.03
1729.54
1.24806e+07
1.96938e+06
648105
333811
203744
134152
93331.2
67781.9
50821.9
39039.1
30556
24273.3
19507.8
15815.7
12894
10524.1
8539.73
6813.54
5258.38
3872.13
2812.2
1996.97
1730.49
1.24805e+07
1.97239e+06
648412
333933
203835
134234
93380
67803.4
50834.4
39044.9
30560.4
24276.7
19510.2
15819
12897.7
10527.5
8543.65
6819.74
5266.95
3878.98
2817.08
1996.56
1740.01
1.24805e+07
1.97206e+06
648989
334053
203822
134247
93406
67795.7
50826.2
39040.6
30555.3
24271.4
19507
15818.2
12898.7
10530.2
8547.18
6822.75
5269.11
3882.43
2819.07
1990.03
1745.29
1.24804e+07
1.9697e+06
648949
334013
203829
134249
93377.2
67788.5
50815.6
39026.9
30547.8
24269.2
19508.4
15821.7
12904
10536.8
8553.28
6824.48
5265.59
3879.17
2815.04
1980.18
1747.63
1.24259e+07
1.96421e+06
646074
335028
207010
137516
95928.4
69588.8
52125.8
40029
31350.8
24948.1
20113.3
16381.3
13429.6
11019.4
8967.11
7142.49
5488.54
3932.35
2608.56
1914.17
1922.4
1.24703e+07
1.96622e+06
646776
335130
207068
137570
95993.3
69623.7
52136.3
40025.9
31341.2
24935.7
20100.3
16368.1
13416.4
11006.4
8954.12
7128.19
5470.64
3914.38
2600.04
1901.93
1867.98
1.24737e+07
1.96469e+06
646960
335268
207129
137628
96018.4
69652.4
52164.9
40050.5
31358.5
24948.3
20108.7
16373.2
13418.1
11003.6
8944.47
7113.24
5456.6
3903.43
2591.41
1897.23
1863.37
1.24086e+07
1.96073e+06
646756
335340
207121
137633
96017.4
69655.5
52164.7
40052
31359.9
24948.5
20105.8
16367.5
13409.2
10990.8
8930.41
7107.06
5461.06
3907.06
2587.88
1904.71
1997.86
1.24552e+07
1.96558e+06
647700
335578
207145
137621
96008
69655.8
52171.6
40054.2
31361.2
24947.1
20102.2
16361.6
13400.6
10982.7
8931.61
7123.42
5483.13
3917.01
2586.24
1929.47
2231.96
1.24549e+07
1.96567e+06
647315
335590
207190
137642
96038.8
69669
52180.3
40061.3
31364.1
24947.3
20100.5
16357.6
13396.3
10984.5
8942.98
7136.42
5482.93
3900.26
2573.58
1928.51
1923.09
1.2412e+07
1.96319e+06
647200
335419
207063
137619
96045.6
69679.8
52195.3
40073.1
31371.6
24951
20100.8
16356.7
13398.3
10988.8
8940.24
7113.33
5438.58
3851.13
2547.03
1897.74
1836.46
1.23666e+07
1.96068e+06
647268
335537
207140
137668
96062.6
69696.4
52210
40083.4
31378.2
24954.5
20102.6
16358.1
13398.1
10979.4
8912.5
7070.03
5395.3
3819.76
2531.02
1888.52
1835.9
1.23669e+07
1.95912e+06
646997
335618
207185
137689
96076.6
69711.3
52220.1
40092.1
31383.7
24957.8
20103.9
16356.7
13389.5
10958.7
8886.96
7061.21
5411.76
3845.11
2539.92
1898.46
1937.58
1.24289e+07
1.96088e+06
647503
335855
207310
137719
96083
69721.3
52227.1
40095
31386.7
24957.6
20101
16349.7
13376.3
10947.2
8896.21
7102.44
5467.63
3887.76
2553.82
1934.1
2295.83
1.25423e+07
1.9793e+06
651706
335328
204697
134813
93770.8
68080.7
51040
39211.1
30699.7
24398.6
19620.3
15917.7
12987.2
10609.2
8615.85
6874.89
5298.91
3894.77
2821.62
1963.64
1730.96
1.248e+07
1.97023e+06
650052
334912
204617
134820
93787.5
68110.2
51066.2
39232
30719.4
24413
19630.1
15926.8
12996
10617.7
8624.87
6885.29
5311
3907.53
2831.39
1966.51
1729.15
1.248e+07
1.96465e+06
649227
334933
204570
134823
93836.5
68138.2
51089.9
39251.8
30735
24427.2
19642.4
15936
13004.3
10626.4
8634.5
6895.43
5319.93
3914.54
2837.14
1967.91
1734.82
1.248e+07
1.9673e+06
649937
335227
204752
134924
93889.9
68172.9
51120
39275
30752.6
24440.1
19653
15946.3
13013.8
10635.7
8643.44
6902.38
5323.22
3914.58
2837.17
1968.1
1739.81
1.24799e+07
1.96763e+06
650129
335394
204961
135064
93964.4
68226.6
51157.5
39297.1
30767.4
24452.5
19663.4
15954.8
13021.7
10643.7
8650.59
6907.62
5326.2
3914.85
2836.59
1968.22
1737.02
1.24799e+07
1.97006e+06
650301
335489
205055
135123
94016.9
68261.8
51182.6
39318.4
30783.4
24462.3
19670.6
15961.8
13028.5
10650.6
8657.82
6915.53
5335.01
3922.89
2841.37
1968.93
1739.29
1.24799e+07
1.97304e+06
651208
335681
205134
135177
94042.4
68280.3
51190.1
39326.7
30790.9
24468.8
19676.2
15967.2
13034.5
10657.6
8666.71
6926.76
5346.87
3935.28
2850.02
1970.43
1735.14
1.24798e+07
1.96784e+06
650519
335792
205138
135144
94021.3
68280.3
51197.4
39330.3
30792.7
24470.6
19678.6
15970.7
13039.8
10665.2
8676.19
6936.6
5355.47
3943.9
2856.8
1970.73
1734.83
1.24798e+07
1.96771e+06
650009
335892
205172
135135
94040.7
68292.4
51207.8
39337.4
30796.1
24473.7
19682.6
15976
13046.8
10673.5
8684.47
6942.87
5358.99
3946.27
2858.71
1969.79
1741.62
1.24176e+07
1.96395e+06
649645
335808
205182
135180
94080.9
68319.3
51223.4
39343.3
30802.1
24477.3
19686.8
15981.5
13054.1
10681.3
8691.12
6947.07
5360.82
3945.53
2856.88
1968.03
1743.71
1.2353e+07
1.9575e+06
649158
335710
205223
135230
94106.8
68333.6
51228.5
39351.3
30809.2
24484.3
19694.5
15989.6
13061.9
10688.5
8697.32
6952.32
5363.4
3945.43
2855.28
1966.29
1750.05
1.24146e+07
1.96397e+06
649711
335825
205359
135334
94155.1
68366.5
51244.9
39364.1
30818.3
24492.4
19701.7
15997.3
13069.2
10695.6
8704.35
6959.03
5367.55
3948.38
2856.61
1965.19
1746.89
1.24797e+07
1.96774e+06
650198
335962
205453
135356
94154.8
68359.5
51252.2
39367.4
30821.6
24499.3
19709.4
16004.5
13076.8
10703.6
8712.84
6967.86
5376.25
3958.4
2863.87
1965.07
1754.31
1.24797e+07
1.97027e+06
650746
335987
205548
135431
94216
68393.4
51275.1
39384.2
30833.1
24509.3
19718.9
16013.3
13085.7
10712.8
8723.81
6980.76
5390.8
3974.6
2875.33
1966.59
1763.53
1.24797e+07
1.97311e+06
650978
336041
205546
135458
94240.8
68420.7
51290.7
39397.5
30846.9
24521.7
19730.1
16022.9
13094.8
10723.7
8736.6
6994.33
5403.43
3986.84
2883.58
1968.06
1762.85
1.24797e+07
1.96793e+06
649697
335928
205622
135544
94294.5
68457.3
51316.4
39417.8
30860.3
24531.4
19739.1
16032.7
13105.7
10735.1
8747.83
7003.15
5406.55
3987.47
2883.17
1967.72
1764.8
1.24797e+07
1.96765e+06
650221
336020
205652
135596
94330.2
68474
51331.6
39432.2
30871.6
24540.9
19745.9
16039.5
13113.9
10743.8
8754.09
7004.82
5402.96
3981.91
2877.67
1965.98
1762.46
1.24797e+07
1.96795e+06
650849
336250
205744
135623
94337
68482.1
51340.7
39437.7
30877.3
24544.4
19750.5
16045.3
13119.4
10748.3
8756.93
7007.3
5405.64
3985.34
2877.48
1964.3
1757.56
1.25404e+07
1.97139e+06
650693
336239
205829
135684
94359.6
68491.9
51345.8
39440.9
30881
24547.3
19752.7
16047.9
13122.9
10752.8
8763.69
7018.82
5421.11
4001.78
2886.46
1963.51
1757.88
1.25435e+07
1.97421e+06
650794
336334
205863
135702
94399.5
68521.4
51359.1
39448.6
30885.2
24551.8
19756.9
16052.4
13128.5
10761.6
8777.61
7036.4
5436.25
4015.34
2894.69
1963.36
1766.35
1.24797e+07
1.97307e+06
650998
336306
205803
135682
94423.3
68539.2
51366.7
39451
30885.1
24553.1
19760.5
16057.7
13137
10773
8789.78
7043.12
5433.14
4011.29
2892.3
1961.59
1765.35
1.24797e+07
1.97298e+06
651498
336377
205803
135685
94447.4
68551.8
51376.8
39459.9
30894.5
24558.9
19765.3
16064.5
13145.7
10782.3
8794.15
7037.97
5422.06
4002.43
2886.13
1959.12
1773.03
1.24797e+07
1.97026e+06
650748
336199
205796
135715
94473.4
68573.3
51386.7
39465
30898
24562.8
19770.2
16071.2
13153.1
10787.3
8794.61
7039.02
5429.63
4012.85
2889.97
1958.09
1777.37
1.24797e+07
1.97293e+06
650844
336284
205821
135746
94483.8
68580.2
51394.9
39469.5
30900.1
24566.5
19776.7
16078.6
13160.1
10793.5
8805.54
7060.44
5457.75
4037.92
2901.97
1957.66
1771.59
1.24798e+07
1.9729e+06
650876
336563
206101
135877
94531.7
68597.4
51403.3
39475.9
30904.2
24570.7
19781.9
16084.4
13167.5
10806.3
8826.52
7083.93
5470.79
4043.86
2903.03
1956.34
1776.13
1.2539e+07
1.97652e+06
651209
336590
206144
135890
94523.4
68592.1
51404
39476.9
30907.7
24574.9
19786.6
16091.1
13178.8
10821.6
8838.32
7078.81
5446.03
4018.56
2886.68
1952.45
1775.25
1.25421e+07
1.9764e+06
651638
336599
206046
135854
94521.1
68589.2
51397.8
39471.9
30904.2
24576.2
19791.6
16099.5
13189.8
10828.6
8830.9
7055.98
5421.54
4004.2
2877.51
1949.56
1781.09
1.24798e+07
1.97004e+06
651008
336517
206028
135859
94514.6
68597.6
51412.5
39484.8
30913.9
24584.2
19801.8
16110.9
13197.3
10828.1
8824.94
7060.96
5448.1
4037.93
2896.84
1950.85
1783.33
1.24799e+07
1.96759e+06
650256
336319
206022
135919
94546.4
68608.2
51417.6
39489.8
30920.8
24594.3
19812.9
16120.4
13202.8
10833.8
8845.24
7105.1
5504.26
4086.52
2923.22
1952.53
1787.73
1.24799e+07
1.96726e+06
649672
336044
205958
135872
94548.7
68613.8
51421.5
39498.1
30931.4
24602.9
19821
16128.2
13213.3
10854.9
8879.77
7138.22
5516.77
4086.63
2919.92
1949.77
1786.38
1.24799e+07
1.96989e+06
649715
336148
206098
135942
94583.8
68642.7
51436.6
39508
30942.7
24613.3
19829.9
16140
13230.9
10876.4
8889.84
7117.9
5468.74
4038.42
2887.74
1943.98
1796.07
1.248e+07
1.96977e+06
650139
336326
206119
135944
94578.6
68633.8
51441.9
39514.4
30949.4
24623
19842.3
16154.5
13244.9
10878.8
8868.29
7078.32
5431.72
4012.48
2868.97
1940.18
1795.25
1.24181e+07
1.9637e+06
649545
336197
206133
136007
94612.4
68651.8
51447
39519.3
30956.6
24632.4
19852.7
16163.2
13246.5
10868.1
8854.11
7084.01
5462.91
4048.62
2887.17
1940.65
1790.36
1.24751e+07
1.96683e+06
649848
336137
206059
136020
94626.5
68666.5
51464.4
39530.5
30967.2
24644
19862.7
16167.5
13244.9
10870.1
8877.67
7133.96
5521.34
4099.25
2914.44
1941.98
1790.41
1.25985e+07
1.97661e+06
651085
336365
206120
136043
94638.8
68679.7
51483.9
39548.7
30980.7
24653
19868.4
16171.5
13252.8
10891.4
8912.68
7163.47
5530.92
4101.28
2914.21
1940.62
1798.16
1.25405e+07
1.97067e+06
649945
336037
206102
136057
94658.8
68710.4
51505.3
39568.1
30995.1
24663
19875.1
16180.4
13268.6
10910.7
8918.45
7141.86
5491.81
4065.45
2890.86
1936.59
1795.24
1.24802e+07
1.96674e+06
649416
336023
206203
136101
94716
68752.2
51533.8
39583.6
31004
24669.6
19883.2
16191.6
13279.3
10910.2
8898.93
7113.94
5471.66
4051.59
2878.39
1933.85
1798.74
1.24803e+07
1.96929e+06
649460
336230
206381
136201
94781.3
68788.1
51551.3
39595.9
31011.9
24676.1
19890.1
16196.8
13278.5
10901.5
8891.87
7124.8
5498.03
4076.19
2887.61
1933.12
1790.4
1.24803e+07
1.96924e+06
649864
336059
206314
136227
94786.5
68799.8
51561.8
39601.5
31016.9
24678.6
19892.7
16197.5
13276.6
10904
8909.59
7155.54
5526.88
4097.83
2895.76
1932.31
1793
1.24804e+07
1.96912e+06
649784
336111
206393
136289
94812.5
68808.9
51568
39604.1
31016.3
24679.2
19891.7
16197.1
13280.5
10916.5
8926.93
7163.78
5521.6
4089.99
2888.27
1930.32
1801.39
1.24805e+07
1.96917e+06
648669
335917
206359
136259
94818.9
68807.2
51560
39597.2
31013.3
24678.3
19892.7
16200.2
13288.4
10924.6
8925.49
7149.15
5503.04
4074.69
2875.91
1927.52
1803.64
1.24806e+07
1.96909e+06
648563
335906
206394
136282
94823.2
68806.6
51562.2
39594.7
31010.9
24677.2
19894.8
16205.2
13292.3
10923.3
8917.91
7143.74
5505.4
4077.37
2872.71
1925.99
1809.78
1.25361e+07
1.97237e+06
649240
336089
206432
136270
94820.6
68798.7
51554.9
39593.4
31012
24679.8
19897.6
16207.1
13291.9
10921.7
8921.21
7155.44
5519.6
4086.46
2872.45
1924.63
1808.99
1.24768e+07
1.96588e+06
649008
335796
206332
136257
94807.8
68785.1
51545.8
39592.8
31015.5
24684
19901.5
16210
13294.6
10927.2
8931.06
7164.15
5520.79
4082.48
2865.39
1923.25
1819.43
1.24189e+07
1.96233e+06
647981
335447
206252
136258
94816.2
68798
51555.2
39601.3
31023.4
24690.5
19906.8
16215.3
13301
10934.6
8935.57
7160.35
5511.65
4073.24
2856.86
1922.16
1833.29
1.24189e+07
1.96227e+06
647318
335242
206278
136321
94854.1
68823.6
51579.1
39618
31035.5
24700.5
19915
16222.6
13308.1
10939.2
8935.43
7158.72
5514.64
4078.18
2857.01
1921.81
1831.68
1.2419e+07
1.96216e+06
647171
335281
206358
136394
94915.4
68857.4
51607.2
39639
31049.9
24712.6
19925.3
16230.4
13313.4
10942.6
8940.9
7170.16
5531.17
4094.21
2864.08
1922.28
1830.19
1.24811e+07
1.96849e+06
647626
335476
206529
136468
94942.8
68872.2
51622.7
39650.2
31056.7
24717.2
19928.9
16234.2
13317.6
10949.3
8951.4
7182.39
5541.15
4101.15
2865.62
1921.9
1825.63
1.24812e+07
1.96841e+06
647972
335609
206547
136484
94962.4
68890.5
51632.1
39658.6
31063.2
24721.9
19932
16237.3
13322.2
10955.9
8957.26
7182.46
5535.62
4093
2857.48
1920.26
1826.33
1.25352e+07
1.9716e+06
648663
335866
206630
136542
94985.7
68907.7
51644
39662.8
31063.9
24723.2
19935.1
16241.9
13327.1
10959.6
8956.59
7176.48
5528.47
4083.82
2847.05
1918.44
1833.31
1.25384e+07
1.97151e+06
648073
335468
206523
136567
95010.7
68916.6
51647.5
39666.9
31068.8
24727
19938.1
16245.3
13330.8
10961.4
8956.53
7177.07
5531.32
4083.38
2840.76
1916.89
1835.3
1.24815e+07
1.96823e+06
647637
335310
206400
136536
95017.7
68929.9
51651.8
39669.2