/*--------------------------------*- C++ -*----------------------------------*\
  =========                 |
  \\      /  F ield         | OpenFOAM: The Open Source CFD Toolbox
   \\    /   O peration     | Website:  https://openfoam.org
    \\  /    A nd           | Version:  10
     \\/     M anipulation  |
\*---------------------------------------------------------------------------*/
FoamFile
{
    format      ascii;
    class       volScalarField;
    location    "300";
    object      p;
}
// * * * * * * * * * * * * * * * * * * * * * * * * * * * * * * * * * * * * * //

dimensions      [0 2 -2 0 0 0 0];

internalField   nonuniform List<scalar> 
96890
(
94.9821
94.979
94.9818
94.9838
94.983
94.9882
94.9918
94.9988
95.0071
95.0174
95.0315
95.0491
95.0692
95.0949
95.129
95.1711
95.2246
95.2927
95.3845
95.5143
95.7091
95.9547
96.7127
-228.295
-228.294
-228.294
-228.292
-228.289
-228.284
-228.276
-228.265
-228.25
-228.231
-228.206
-228.174
-228.133
-228.08
-228.013
-227.928
-227.819
-227.68
-227.507
-227.289
-227.033
-226.761
-226.508
-228.931
-228.931
-228.93
-228.928
-228.924
-228.918
-228.91
-228.898
-228.881
-228.86
-228.832
-228.795
-228.747
-228.685
-228.605
-228.502
-228.371
-228.201
-227.977
-227.686
-227.334
-226.92
-226.367
150.331
150.33
150.327
150.323
150.317
150.311
150.306
150.313
150.332
150.368
150.434
150.538
150.701
150.955
151.301
151.738
152.296
152.924
153.559
154.116
154.443
154.314
153.261
174.234
174.283
174.359
174.53
174.873
175.453
176.382
177.7
179.477
181.703
184.334
187.47
191.058
194.898
198.959
203.074
206.904
210.142
212.558
213.892
213.872
211.691
208.42
139.262
139.262
139.263
139.264
139.266
139.271
139.278
139.287
139.3
139.315
139.337
139.363
139.394
139.434
139.48
139.535
139.595
139.662
139.724
139.763
139.734
139.576
139.151
145.932
145.931
145.931
145.932
145.937
145.939
145.951
145.967
145.988
146.02
146.062
146.115
146.183
146.267
146.369
146.489
146.626
146.781
146.941
147.077
147.128
146.984
146.556
107.619
107.619
107.619
107.62
107.624
107.624
107.629
107.635
107.643
107.651
107.661
107.672
107.686
107.702
107.717
107.732
107.746
107.754
107.754
107.736
107.695
107.585
107.355
112.265
112.265
112.265
112.267
112.269
112.272
112.277
112.282
112.29
112.299
112.309
112.321
112.334
112.348
112.362
112.375
112.385
112.386
112.375
112.344
112.276
112.125
111.805
117.092
117.092
117.092
117.094
117.097
117.1
117.105
117.113
117.121
117.133
117.146
117.161
117.178
117.197
117.216
117.236
117.253
117.263
117.262
117.246
117.199
117.089
116.885
122.203
122.204
122.204
122.205
122.208
122.211
122.215
122.223
122.23
122.24
122.251
122.263
122.276
122.288
122.299
122.303
122.299
122.277
122.23
122.14
121.97
121.649
120.913
127.636
127.636
127.636
127.638
127.639
127.645
127.649
127.656
127.666
127.678
127.691
127.706
127.722
127.74
127.756
127.77
127.778
127.774
127.754
127.706
127.608
127.446
127.079
133.475
133.475
133.475
133.477
133.481
133.484
133.491
133.5
133.509
133.524
133.539
133.557
133.578
133.602
133.625
133.648
133.667
133.677
133.671
133.635
133.534
133.32
132.778
103.241
103.241
103.241
103.244
103.243
103.248
103.253
103.259
103.266
103.276
103.289
103.303
103.321
103.341
103.364
103.389
103.414
103.437
103.452
103.449
103.429
103.289
102.955
151.663
151.861
152.171
152.635
153.28
154.133
155.151
156.282
157.471
158.677
159.861
160.998
161.986
162.775
163.566
164.497
165.435
166.309
167.019
167.441
167.433
166.791
165.361
99.2469
99.2472
99.2477
99.247
99.2503
99.2522
99.2568
99.2618
99.2701
99.2795
99.2918
99.3077
99.3271
99.3515
99.3834
99.4228
99.4709
99.5295
99.6024
99.6929
99.8107
99.8346
99.9504
60.9773
60.977
60.9776
60.9777
60.9805
60.9821
60.9856
60.9906
60.9974
61.0057
61.0156
61.028
61.0426
61.0599
61.0789
61.0998
61.1219
61.14
61.1498
61.1338
61.0811
60.9558
59.9832
90.6911
90.6948
90.6934
90.6943
90.6963
90.699
90.7039
90.7101
90.7163
90.7261
90.7371
90.7508
90.7656
90.7827
90.8022
90.8223
90.8407
90.852
90.8508
90.8235
90.7438
90.5397
90.2948
86.933
86.9331
86.9337
86.934
86.9357
86.9394
86.944
86.949
86.9562
86.9643
86.9759
86.9899
87.0052
87.025
87.0477
87.0731
87.1006
87.1284
87.1525
87.1676
87.1563
87.0741
86.8229
83.1894
83.1898
83.1901
83.1904
83.1918
83.195
83.1994
83.2026
83.209
83.2165
83.227
83.2383
83.2534
83.2719
83.2933
83.3185
83.3476
83.3795
83.4151
83.4567
83.5052
83.5621
83.696
79.512
79.5123
79.5126
79.5132
79.5147
79.5185
79.5207
79.5264
79.5327
79.5405
79.55
79.5615
79.5753
79.5899
79.6057
79.6209
79.6346
79.6418
79.6373
79.612
79.557
79.4481
79.1526
76.2294
76.2273
76.2304
76.2288
76.2321
76.2332
76.2376
76.2431
76.2493
76.2585
76.2686
76.282
76.297
76.3159
76.3362
76.359
76.3829
76.4045
76.4161
76.4138
76.3879
76.2499
75.8177
73.2166
73.2193
73.2172
73.2192
73.2205
73.2229
73.2276
73.232
73.2405
73.2498
73.2633
73.2792
73.3001
73.3265
73.3596
73.4011
73.4537
73.5198
73.6012
73.7101
73.8506
73.9459
74.2216
70.0544
70.0546
70.0556
70.0556
70.0577
70.0608
70.0649
70.0717
70.0793
70.0903
70.1044
70.1216
70.1448
70.1734
70.2104
70.2574
70.3179
70.3965
70.5011
70.6468
70.84
71.0873
71.7725
66.7048
66.7052
66.7042
66.7069
66.7072
66.7122
66.7168
66.7236
66.7317
66.7435
66.7565
66.7735
66.7935
66.8168
66.8444
66.8764
66.913
66.9557
67.0054
67.0637
67.1055
67.1995
67.3976
63.6102
63.6095
63.6102
63.6113
63.6131
63.6162
63.6203
63.626
63.6335
63.6425
63.6523
63.6647
63.6784
63.6928
63.7072
63.7218
63.7335
63.738
63.728
63.6894
63.5904
63.5217
63.116
11.7082
11.7084
11.7094
11.7092
11.7114
11.7137
11.7177
11.7222
11.7293
11.7373
11.7484
11.7621
11.7791
11.7995
11.8245
11.8548
11.8925
11.9366
11.9881
12.0464
12.1019
12.1614
12.149
9.81945
9.8194
9.81886
9.82037
9.82092
9.82253
9.82493
9.82816
9.83264
9.83856
9.84642
9.85602
9.86905
9.88516
9.90537
9.92972
9.96053
9.9943
10.0361
10.0755
10.1186
10.1383
10.0413
58.4458
58.4453
58.4458
58.447
58.4485
58.4502
58.4535
58.4582
58.4649
58.473
58.4842
58.4975
58.5159
58.5384
58.5685
58.6073
58.659
58.7288
58.8231
58.9657
59.185
59.5221
59.9729
55.6421
55.6429
55.6428
55.6444
55.6443
55.647
55.6498
55.6537
55.6587
55.6658
55.6749
55.6854
55.6985
55.7146
55.7341
55.7567
55.7835
55.813
55.8423
55.8685
55.8749
55.8101
55.6813
53.0987
53.0991
53.0994
53.0998
53.102
53.1037
53.1078
53.1132
53.1194
53.1286
53.1396
53.154
53.1717
53.194
53.2227
53.2578
53.302
53.3574
53.4252
53.5099
53.6115
53.7236
53.861
50.4664
50.4646
50.4672
50.4663
50.4684
50.4708
50.4752
50.4801
50.4876
50.4961
50.5086
50.5228
50.5419
50.5658
50.5954
50.6313
50.6765
50.733
50.8016
50.8858
50.9843
51.0995
51.2359
47.952
47.9542
47.9525
47.9554
47.9552
47.9581
47.9619
47.9668
47.9735
47.9828
47.9935
48.0075
48.0252
48.0473
48.0749
48.1078
48.1482
48.198
48.2577
48.329
48.4105
48.5216
48.6345
45.5262
45.526
45.5273
45.5268
45.5283
45.5307
45.5336
45.5382
45.5441
45.5515
45.5607
45.5728
45.5872
45.6055
45.6283
45.6553
45.6881
45.7264
45.7695
45.8137
45.8528
45.8766
45.7408
43.1863
43.1864
43.1867
43.187
43.1889
43.1915
43.1946
43.2
43.2066
43.2153
43.2269
43.2416
43.2599
43.2826
43.3115
43.3471
43.392
43.4472
43.5149
43.5974
43.6947
43.7953
43.8478
40.8575
40.8583
40.8586
40.8582
40.8609
40.8621
40.8664
40.8713
40.8779
40.8863
40.8976
40.9119
40.9297
40.9525
40.9812
41.0181
41.0643
41.1225
41.1962
41.2907
41.4104
41.5695
41.8115
38.5304
38.5307
38.5306
38.5314
38.5326
38.5355
38.5385
38.544
38.5506
38.5596
38.5707
38.5853
38.6028
38.6253
38.6532
38.6881
38.7303
38.7818
38.8444
38.917
38.9946
39.0726
39.0743
36.3095
36.3098
36.3098
36.3105
36.3123
36.3145
36.3181
36.3234
36.3301
36.3387
36.3503
36.364
36.3822
36.4046
36.4327
36.4677
36.5104
36.5635
36.6297
36.7108
36.8101
36.9361
37.0583
34.1558
34.1554
34.1551
34.157
34.1572
34.1597
34.1627
34.1664
34.1719
34.1789
34.1874
34.1987
34.2131
34.2302
34.2518
34.2789
34.3123
34.3522
34.3993
34.4518
34.5065
34.5496
34.523
32.0349
32.0348
32.0347
32.0357
32.0379
32.0388
32.043
32.0469
32.0529
32.0608
32.071
32.0839
32.1002
32.1205
32.1461
32.1784
32.2186
32.2682
32.3286
32.4001
32.486
32.5675
32.6263
29.9188
29.9193
29.9207
29.9198
29.9214
29.9249
29.9273
29.9327
29.9393
29.9475
29.9583
29.9726
29.9902
30.0129
30.041
30.0772
30.1217
30.1775
30.2467
30.3326
30.4461
30.5697
30.7258
27.8553
27.8546
27.8539
27.8563
27.8574
27.8589
27.8627
27.8676
27.8734
27.8815
27.892
27.9056
27.9229
27.9445
27.9714
28.0052
28.0469
28.0985
28.161
28.2351
28.3272
28.3942
28.4925
25.853
25.8535
25.8543
25.8544
25.8552
25.8588
25.8624
25.8676
25.8753
25.8847
25.8973
25.9132
25.9343
25.9605
25.9935
26.0362
26.0899
26.1565
26.2388
26.3401
26.4612
26.55
26.7312
23.9006
23.9002
23.9013
23.9005
23.9032
23.9048
23.9084
23.9129
23.9195
23.9287
23.9404
23.9554
23.9754
24.0011
24.0344
24.0786
24.1369
24.2131
24.3125
24.4467
24.6279
24.8643
25.3746
21.7623
21.764
21.7626
21.7644
21.7656
21.7677
21.7708
21.7749
21.7815
21.7897
21.7998
21.8129
21.8299
21.8518
21.8794
21.9142
21.9584
22.0148
22.0855
22.1744
22.2815
22.4295
22.6359
19.6649
19.6653
19.6654
19.6656
19.6681
19.6698
19.6725
19.6773
19.6832
19.6911
19.7008
19.7126
19.7277
19.7468
19.7705
19.7989
19.8333
19.8739
19.9208
19.9723
20.0313
20.0987
20.0496
17.703
17.7029
17.7031
17.7039
17.705
17.7071
17.7101
17.7136
17.7194
17.7269
17.7359
17.7479
17.7629
17.7823
17.806
17.8355
17.8715
17.9148
17.9643
18.0177
18.0784
18.0978
17.9593
15.7994
15.8001
15.7999
15.801
15.8021
15.8049
15.8084
15.8138
15.8207
15.8296
15.8422
15.8581
15.8786
15.9052
15.9392
15.9834
16.0401
16.1139
16.2076
16.3298
16.4897
16.6519
16.9442
13.7781
13.7774
13.7775
13.7787
13.7797
13.7823
13.7861
13.7912
13.7979
13.8073
13.8194
13.8352
13.8557
13.8822
13.9168
13.962
14.0209
14.0977
14.1981
14.3342
14.5183
14.7791
15.3174
-55.5142
-55.514
-55.5137
-55.5132
-55.5122
-55.5108
-55.5076
-55.5042
-55.4985
-55.4914
-55.4821
-55.47
-55.4542
-55.4342
-55.4086
-55.3765
-55.3362
-55.2858
-55.2238
-55.1496
-55.0674
-54.9621
-54.9284
-56.8744
-56.874
-56.8742
-56.8734
-56.8721
-56.87
-56.8669
-56.8626
-56.8567
-56.8491
-56.839
-56.8261
-56.8093
-56.788
-56.7606
-56.726
-56.682
-56.6265
-56.5565
-56.4699
-56.3662
-56.2149
-56.0763
-58.2026
-58.2022
-58.203
-58.2016
-58.201
-58.1983
-58.1953
-58.1913
-58.1852
-58.1777
-58.168
-58.1551
-58.1386
-58.1177
-58.0914
-58.0583
-58.0164
-57.9638
-57.8985
-57.8199
-57.7258
-57.5969
-57.5209
-59.4791
-59.4798
-59.4791
-59.4792
-59.4772
-59.4753
-59.4728
-59.4686
-59.463
-59.4556
-59.4457
-59.4333
-59.417
-59.3963
-59.3698
-59.3362
-59.2944
-59.2416
-59.1772
-59.098
-59.0008
-58.8835
-58.8114
-60.7286
-60.729
-60.7288
-60.728
-60.7267
-60.7246
-60.7215
-60.7173
-60.7114
-60.7037
-60.6937
-60.6804
-60.6633
-60.6417
-60.6141
-60.5793
-60.5353
-60.4794
-60.4108
-60.3258
-60.2304
-60.125
-60.0084
7.93915
7.93924
7.94012
7.94014
7.94143
7.94342
7.94578
7.95061
7.95552
7.96283
7.97157
7.98313
7.9982
8.01712
8.04067
8.06988
8.10643
8.15184
8.20719
8.27531
8.36228
8.47408
8.61995
6.09631
6.09639
6.09658
6.09652
6.09821
6.10004
6.10356
6.10733
6.1135
6.12067
6.13044
6.14309
6.15946
6.17979
6.20525
6.2367
6.27578
6.32433
6.38203
6.44871
6.52136
6.58122
6.60948
4.34086
4.34084
4.34048
4.34216
4.34301
4.34509
4.34804
4.3523
4.35805
4.36525
4.37494
4.388
4.40498
4.4269
4.45442
4.48935
4.5339
4.59114
4.66264
4.75344
4.87117
5.02846
5.27384
2.56994
2.56982
2.57034
2.57104
2.57209
2.57404
2.57701
2.58131
2.58718
2.59466
2.60478
2.61819
2.63546
2.65714
2.68421
2.71803
2.75948
2.81013
2.87098
2.94156
3.01964
3.09676
3.12404
0.911881
0.911431
0.912062
0.912288
0.913861
0.915237
0.917906
0.921617
0.926787
0.933648
0.943106
0.955207
0.971479
0.991951
1.01829
1.05205
1.09542
1.15018
1.21987
1.30855
1.42175
1.56741
1.75622
-0.80516
-0.805
-0.804383
-0.804298
-0.803313
-0.801169
-0.799181
-0.794951
-0.78989
-0.782848
-0.773188
-0.760622
-0.744997
-0.724447
-0.698455
-0.665551
-0.624282
-0.572798
-0.508702
-0.43033
-0.340025
-0.243836
-0.153071
-2.4449
-2.44601
-2.44491
-2.4448
-2.44307
-2.44167
-2.43806
-2.43441
-2.42852
-2.42046
-2.41029
-2.39711
-2.37981
-2.35773
-2.32935
-2.29274
-2.24588
-2.18573
-2.10959
-2.01209
-1.89366
-1.73536
-1.52548
-4.16322
-4.16087
-4.16315
-4.16106
-4.16047
-4.15773
-4.15424
-4.14893
-4.14219
-4.13351
-4.12207
-4.10708
-4.08839
-4.06413
-4.03388
-3.99578
-3.94661
-3.88498
-3.80555
-3.70549
-3.5828
-3.40926
-3.26126
-5.86467
-5.86588
-5.86439
-5.86403
-5.86244
-5.85976
-5.85619
-5.85173
-5.84525
-5.83683
-5.82647
-5.81358
-5.7968
-5.77645
-5.75124
-5.71956
-5.68082
-5.63269
-5.5736
-5.50064
-5.40852
-5.26578
-5.15958
-7.48757
-7.48662
-7.48734
-7.48646
-7.48445
-7.48248
-7.47875
-7.47333
-7.46706
-7.45889
-7.44809
-7.43444
-7.41775
-7.39736
-7.37235
-7.34213
-7.30658
-7.26506
-7.22038
-7.17701
-7.14305
-7.1683
-7.4375
-8.95027
-8.95188
-8.95024
-8.94955
-8.94847
-8.94509
-8.94132
-8.9361
-8.92901
-8.91849
-8.90608
-8.88977
-8.86869
-8.84181
-8.80752
-8.7637
-8.70787
-8.63563
-8.54248
-8.41963
-8.26
-8.07018
-7.73215
-10.469
-10.468
-10.4684
-10.468
-10.4669
-10.4648
-10.4619
-10.458
-10.4519
-10.4445
-10.4346
-10.4211
-10.4033
-10.3805
-10.351
-10.312
-10.2613
-10.1943
-10.1072
-9.99088
-9.84044
-9.62454
-9.25492
-12.084
-12.0848
-12.0844
-12.0834
-12.0821
-12.0801
-12.0765
-12.0714
-12.0647
-12.0562
-12.0453
-12.0308
-12.0121
-11.9883
-11.9582
-11.9194
-11.8693
-11.8047
-11.7225
-11.6159
-11.4903
-11.3124
-11.1958
-13.7211
-13.7211
-13.7206
-13.7197
-13.7189
-13.7173
-13.7143
-13.71
-13.7044
-13.6972
-13.688
-13.676
-13.6601
-13.6403
-13.6148
-13.5821
-13.5407
-13.4868
-13.4176
-13.3265
-13.215
-13.0208
-12.8356
-15.2914
-15.2915
-15.2911
-15.2904
-15.2897
-15.2882
-15.2857
-15.2821
-15.2777
-15.2718
-15.2644
-15.255
-15.2433
-15.2286
-15.2104
-15.1891
-15.1629
-15.1348
-15.1057
-15.0833
-15.0764
-15.0473
-15.2725
-16.6325
-16.6317
-16.6315
-16.6311
-16.6303
-16.6286
-16.6258
-16.6223
-16.617
-16.61
-16.6013
-16.5897
-16.5748
-16.5556
-16.5316
-16.5022
-16.4651
-16.4193
-16.3618
-16.2959
-16.218
-16.125
-16.426
-18.0837
-18.0837
-18.0836
-18.0832
-18.082
-18.0795
-18.0769
-18.0725
-18.0673
-18.0597
-18.0492
-18.0359
-18.0182
-17.995
-17.9645
-17.9227
-17.868
-17.7905
-17.6909
-17.5432
-17.3463
-17.0286
-16.6213
-19.6227
-19.6224
-19.6228
-19.6218
-19.6207
-19.6186
-19.6154
-19.6115
-19.6055
-19.5979
-19.588
-19.5751
-19.5587
-19.5374
-19.5107
-19.4772
-19.4365
-19.3847
-19.3245
-19.2516
-19.1787
-19.1089
-19.1274
-21.0231
-21.0233
-21.0226
-21.0223
-21.0212
-21.0198
-21.0171
-21.0136
-21.0087
-21.0019
-20.9927
-20.9808
-20.9657
-20.9454
-20.9193
-20.8851
-20.841
-20.7824
-20.707
-20.6077
-20.478
-20.303
-20.1464
-22.587
-22.5867
-22.5872
-22.5863
-22.585
-22.5831
-22.5804
-22.5763
-22.5711
-22.5639
-22.5546
-22.5425
-22.5264
-22.506
-22.48
-22.4467
-22.4044
-22.3499
-22.2824
-22.1976
-22.0925
-21.9742
-21.8579
-24.0983
-24.0994
-24.0981
-24.0978
-24.0969
-24.0947
-24.0914
-24.0875
-24.0811
-24.0733
-24.0627
-24.0491
-24.0309
-24.008
-23.9784
-23.9402
-23.891
-23.8277
-23.7475
-23.6458
-23.5192
-23.366
-23.1783
-25.6521
-25.6521
-25.6518
-25.6513
-25.65
-25.6477
-25.6448
-25.6401
-25.6344
-25.6263
-25.6158
-25.6016
-25.5833
-25.5598
-25.5292
-25.4895
-25.4388
-25.3724
-25.2865
-25.174
-25.0302
-24.8425
-24.5901
-27.262
-27.2598
-27.2617
-27.2601
-27.2587
-27.2568
-27.2532
-27.2487
-27.2426
-27.2347
-27.2241
-27.2101
-27.1928
-27.1707
-27.1426
-27.1068
-27.0612
-27.0036
-26.9306
-26.8375
-26.7214
-26.5576
-26.3541
-28.8185
-28.8194
-28.8182
-28.8175
-28.8164
-28.8148
-28.811
-28.8069
-28.801
-28.7938
-28.784
-28.7718
-28.7561
-28.7363
-28.7118
-28.6817
-28.6442
-28.5984
-28.5442
-28.4842
-28.4213
-28.3592
-28.397
-30.2864
-30.2855
-30.2862
-30.2849
-30.2839
-30.2816
-30.2785
-30.2738
-30.2677
-30.2598
-30.2494
-30.2358
-30.2181
-30.1962
-30.1686
-30.1337
-30.0898
-30.0342
-29.9652
-29.882
-29.7808
-29.6629
-29.58
-31.7282
-31.7283
-31.7276
-31.7271
-31.7263
-31.724
-31.7209
-31.7171
-31.7111
-31.7042
-31.6946
-31.6826
-31.6667
-31.6469
-31.6208
-31.588
-31.546
-31.4914
-31.422
-31.3342
-31.2167
-31.0571
-30.8483
-33.1482
-33.149
-33.1482
-33.1479
-33.1468
-33.145
-33.142
-33.1381
-33.1332
-33.126
-33.1168
-33.1051
-33.0904
-33.0717
-33.0483
-33.0187
-32.9818
-32.9359
-32.8799
-32.8152
-32.7424
-32.6842
-32.6715
-34.5523
-34.5523
-34.5515
-34.5515
-34.5498
-34.5469
-34.5445
-34.5397
-34.5333
-34.5249
-34.514
-34.5003
-34.4825
-34.4595
-34.4298
-34.3916
-34.3421
-34.2783
-34.1974
-34.0934
-33.9605
-33.7989
-33.5634
-36.0209
-36.0211
-36.0212
-36.02
-36.0183
-36.0165
-36.0125
-36.0077
-36.0009
-35.9924
-35.9811
-35.9666
-35.9482
-35.9247
-35.8949
-35.8574
-35.8097
-35.7483
-35.6707
-35.5702
-35.4438
-35.261
-34.9802
-37.4478
-37.4486
-37.4475
-37.4466
-37.4461
-37.4432
-37.4405
-37.436
-37.4298
-37.4214
-37.411
-37.3979
-37.3815
-37.3608
-37.3347
-37.3025
-37.2623
-37.2127
-37.1533
-37.0844
-37.012
-36.9305
-36.9293
-38.8199
-38.8184
-38.8197
-38.8182
-38.8163
-38.8149
-38.8106
-38.806
-38.7996
-38.7912
-38.7806
-38.767
-38.7495
-38.7275
-38.6998
-38.665
-38.6218
-38.5673
-38.5007
-38.4195
-38.3221
-38.1929
-38.0718
-40.1326
-40.1332
-40.1322
-40.1317
-40.1304
-40.1281
-40.1248
-40.1199
-40.1135
-40.1052
-40.0943
-40.0802
-40.0624
-40.0403
-40.0126
-39.9779
-39.935
-39.8817
-39.818
-39.7444
-39.667
-39.59
-39.554
-41.363
-41.3633
-41.3624
-41.362
-41.361
-41.3584
-41.3554
-41.3505
-41.3445
-41.3359
-41.3252
-41.3109
-41.2924
-41.2688
-41.2384
-41.1989
-41.1487
-41.0839
-41.0012
-40.895
-40.7611
-40.5661
-40.2918
-42.6341
-42.6326
-42.6337
-42.6327
-42.6314
-42.6294
-42.6262
-42.6218
-42.6159
-42.6082
-42.5979
-42.5844
-42.567
-42.5445
-42.5152
-42.4779
-42.4304
-42.3692
-42.292
-42.194
-42.0743
-41.9108
-41.7807
-43.9432
-43.9437
-43.9431
-43.9429
-43.9414
-43.9393
-43.9366
-43.9318
-43.9264
-43.9184
-43.9083
-43.895
-43.878
-43.856
-43.8275
-43.7905
-43.7427
-43.6806
-43.601
-43.4974
-43.3675
-43.1798
-42.9752
-45.2995
-45.2988
-45.2991
-45.2988
-45.2972
-45.2954
-45.2923
-45.2884
-45.2828
-45.2757
-45.2665
-45.2544
-45.2393
-45.2196
-45.1953
-45.1648
-45.127
-45.0802
-45.023
-44.9549
-44.8798
-44.7676
-44.6758
-46.5398
-46.5402
-46.54
-46.5395
-46.5381
-46.5359
-46.5333
-46.5286
-46.5236
-46.5162
-46.5068
-46.4944
-46.4788
-46.4591
-46.4339
-46.4025
-46.3632
-46.3161
-46.2602
-46.1998
-46.1418
-46.0896
-46.1897
-47.7512
-47.7514
-47.7515
-47.7503
-47.749
-47.7476
-47.7441
-47.7405
-47.7347
-47.7269
-47.7166
-47.7032
-47.6854
-47.6623
-47.6324
-47.5935
-47.5434
-47.477
-47.3907
-47.2769
-47.126
-46.9053
-46.6183
-49.0879
-49.0883
-49.0873
-49.0869
-49.086
-49.0834
-49.0803
-49.0759
-49.0695
-49.0615
-49.0513
-49.0376
-49.0205
-48.9987
-48.9706
-48.935
-48.8903
-48.8337
-48.7633
-48.6761
-48.5679
-48.4204
-48.2548
-50.3255
-50.3245
-50.3256
-50.3239
-50.323
-50.3208
-50.3179
-50.3133
-50.3077
-50.2998
-50.2892
-50.2756
-50.2582
-50.2358
-50.2076
-50.1724
-50.1287
-50.0737
-50.0072
-49.9268
-49.8323
-49.7253
-49.6949
-51.5058
-51.5064
-51.5054
-51.5055
-51.5042
-51.5024
-51.4993
-51.4956
-51.4894
-51.4816
-51.4714
-51.4578
-51.4397
-51.416
-51.3853
-51.3452
-51.2936
-51.2263
-51.1405
-51.0303
-50.8961
-50.7396
-50.5486
-52.7728
-52.7723
-52.7725
-52.7718
-52.771
-52.7687
-52.7662
-52.7622
-52.7569
-52.7494
-52.7388
-52.7248
-52.7066
-52.6826
-52.651
-52.6096
-52.5552
-52.4826
-52.3871
-52.2575
-52.086
-51.831
-51.3926
-54.169
-54.1701
-54.1689
-54.1692
-54.1671
-54.1658
-54.1629
-54.1582
-54.1527
-54.1443
-54.1341
-54.1209
-54.1038
-54.0819
-54.0536
-54.0178
-53.9725
-53.9154
-53.8445
-53.7557
-53.6521
-53.5003
-53.3768
-157.666
-157.665
-157.665
-157.665
-157.663
-157.66
-157.654
-157.648
-157.638
-157.625
-157.608
-157.585
-157.555
-157.515
-157.464
-157.396
-157.308
-157.19
-157.033
-156.823
-156.536
-156.181
-155.63
-158.899
-158.9
-158.899
-158.898
-158.896
-158.894
-158.89
-158.883
-158.875
-158.863
-158.848
-158.827
-158.8
-158.765
-158.718
-158.657
-158.577
-158.469
-158.324
-158.123
-157.844
-157.434
-156.663
-160.272
-160.271
-160.271
-160.27
-160.269
-160.266
-160.263
-160.258
-160.251
-160.242
-160.23
-160.214
-160.195
-160.171
-160.141
-160.105
-160.062
-160.011
-159.953
-159.89
-159.835
-159.77
-159.76
-161.394
-161.394
-161.394
-161.393
-161.392
-161.39
-161.387
-161.382
-161.377
-161.369
-161.358
-161.345
-161.327
-161.306
-161.278
-161.244
-161.203
-161.154
-161.098
-161.038
-160.997
-160.967
-161.153
-162.441
-162.441
-162.441
-162.44
-162.439
-162.437
-162.433
-162.428
-162.421
-162.412
-162.399
-162.383
-162.361
-162.334
-162.298
-162.253
-162.194
-162.12
-162.023
-161.903
-161.755
-161.563
-161.4
-163.456
-163.455
-163.455
-163.454
-163.453
-163.45
-163.446
-163.441
-163.433
-163.423
-163.409
-163.391
-163.368
-163.338
-163.299
-163.25
-163.186
-163.104
-163
-162.869
-162.701
-162.47
-162.192
-164.447
-164.447
-164.446
-164.446
-164.444
-164.441
-164.437
-164.431
-164.422
-164.411
-164.396
-164.376
-164.35
-164.317
-164.274
-164.218
-164.145
-164.053
-163.937
-163.791
-163.608
-163.367
-163.144
-165.448
-165.448
-165.448
-165.446
-165.444
-165.441
-165.436
-165.429
-165.42
-165.408
-165.392
-165.371
-165.344
-165.31
-165.266
-165.21
-165.139
-165.048
-164.927
-164.769
-164.559
-164.27
-163.891
-166.484
-166.484
-166.483
-166.482
-166.48
-166.477
-166.473
-166.467
-166.459
-166.448
-166.435
-166.417
-166.395
-166.367
-166.332
-166.287
-166.231
-166.16
-166.068
-165.95
-165.816
-165.64
-165.508
-167.479
-167.479
-167.479
-167.478
-167.476
-167.474
-167.469
-167.463
-167.456
-167.446
-167.433
-167.416
-167.394
-167.367
-167.333
-167.289
-167.233
-167.161
-167.068
-166.952
-166.824
-166.657
-166.554
-61.9363
-61.9357
-61.9364
-61.9354
-61.934
-61.9323
-61.9293
-61.9246
-61.9191
-61.9112
-61.9008
-61.8878
-61.8705
-61.848
-61.8195
-61.7832
-61.737
-61.6788
-61.6055
-61.5126
-61.4045
-61.2431
-60.9907
-63.1006
-63.1015
-63.1004
-63.1003
-63.0992
-63.0975
-63.0946
-63.0909
-63.0854
-63.0782
-63.0685
-63.0555
-63.0388
-63.0173
-62.9896
-62.9541
-62.9089
-62.8516
-62.7806
-62.6943
-62.5975
-62.463
-62.4201
-64.2782
-64.2781
-64.2778
-64.277
-64.2767
-64.2743
-64.2719
-64.268
-64.262
-64.2546
-64.2445
-64.2312
-64.2134
-64.19
-64.1599
-64.1208
-64.0696
-64.002
-63.9143
-63.7973
-63.6496
-63.4276
-63.1901
-65.5431
-65.5426
-65.5427
-65.5425
-65.5406
-65.5393
-65.5364
-65.5321
-65.5265
-65.5191
-65.509
-65.4954
-65.4778
-65.4555
-65.4265
-65.3891
-65.3412
-65.2799
-65.2027
-65.1031
-64.9833
-64.8098
-64.6319
-66.7824
-66.7829
-66.7825
-66.7817
-66.7811
-66.7789
-66.7757
-66.7715
-66.7657
-66.7577
-66.7472
-66.7336
-66.716
-66.693
-66.6633
-66.625
-66.5759
-66.5131
-66.4336
-66.3336
-66.2195
-66.0718
-65.9791
-68.0773
-68.0762
-68.0769
-68.0763
-68.0745
-68.0726
-68.0694
-68.0651
-68.0587
-68.0501
-68.039
-68.024
-68.005
-67.9808
-67.9493
-67.9089
-67.8569
-67.7898
-67.7037
-67.5909
-67.4485
-67.2253
-66.9217
-69.3719
-69.3726
-69.3719
-69.3715
-69.3705
-69.3685
-69.3659
-69.3613
-69.356
-69.3486
-69.3392
-69.3267
-69.3107
-69.2906
-69.2648
-69.2323
-69.1919
-69.1417
-69.0806
-69.009
-68.9286
-68.8196
-68.8166
-70.61
-70.6105
-70.61
-70.6093
-70.6085
-70.6063
-70.603
-70.5992
-70.5933
-70.5856
-70.5759
-70.5632
-70.5472
-70.5272
-70.5017
-70.4699
-70.4306
-70.3824
-70.3243
-70.2545
-70.1708
-70.0656
-70.0291
-71.7484
-71.7478
-71.7481
-71.7471
-71.7461
-71.7439
-71.741
-71.737
-71.7314
-71.724
-71.7142
-71.7019
-71.6859
-71.6658
-71.6402
-71.6086
-71.5695
-71.5231
-71.4678
-71.4028
-71.3343
-71.2839
-71.2954
-72.8017
-72.8014
-72.801
-72.8012
-72.8
-72.7981
-72.7955
-72.7917
-72.7862
-72.7787
-72.7689
-72.756
-72.7389
-72.7173
-72.6893
-72.6532
-72.6068
-72.5476
-72.4713
-72.3708
-72.2517
-72.1011
-71.8376
-73.9185
-73.9183
-73.9183
-73.9179
-73.9165
-73.9145
-73.9117
-73.9078
-73.9025
-73.8948
-73.8855
-73.8727
-73.8561
-73.8347
-73.8073
-73.772
-73.7266
-73.6686
-73.5938
-73.4967
-73.382
-73.1949
-72.8999
-75.0324
-75.0324
-75.0324
-75.0319
-75.031
-75.0292
-75.0269
-75.023
-75.018
-75.0112
-75.0018
-74.9895
-74.9735
-74.9531
-74.9268
-74.8934
-74.8512
-74.798
-74.731
-74.6487
-74.5516
-74.4089
-74.4094
-76.1496
-76.1499
-76.149
-76.1488
-76.1474
-76.1457
-76.1424
-76.1386
-76.1325
-76.1249
-76.1145
-76.1007
-76.0831
-76.0603
-76.031
-75.9939
-75.9463
-75.8855
-75.8083
-75.7097
-75.5869
-75.4402
-75.3492
-77.2578
-77.2568
-77.2575
-77.2569
-77.2559
-77.2543
-77.2517
-77.2475
-77.2421
-77.2343
-77.2238
-77.2103
-77.1927
-77.1698
-77.14
-77.1009
-77.0505
-76.985
-76.9003
-76.7905
-76.6573
-76.4924
-76.2227
-78.4302
-78.4308
-78.4305
-78.4295
-78.4288
-78.4263
-78.4233
-78.4187
-78.4124
-78.4033
-78.3917
-78.376
-78.3556
-78.3289
-78.2942
-78.2494
-78.1912
-78.1149
-78.016
-77.8859
-77.7227
-77.4905
-77.1889
-79.6636
-79.664
-79.6635
-79.6631
-79.6618
-79.6601
-79.6573
-79.6531
-79.6471
-79.6392
-79.6284
-79.6142
-79.5961
-79.5722
-79.5404
-79.4987
-79.4445
-79.3734
-79.2793
-79.1542
-78.9958
-78.7636
-78.499
-81.0191
-81.0186
-81.0183
-81.018
-81.0168
-81.0147
-81.0113
-81.0069
-81.0007
-80.9926
-80.9818
-80.968
-80.9502
-80.9281
-80.9002
-80.865
-80.8209
-80.7667
-80.6995
-80.616
-80.5143
-80.3665
-80.2317
-82.2148
-82.2152
-82.2149
-82.2145
-82.213
-82.2113
-82.2086
-82.2048
-82.1998
-82.1929
-82.184
-82.1729
-82.1584
-82.1408
-82.1188
-82.0922
-82.0608
-82.025
-81.9855
-81.9458
-81.9184
-81.9312
-82.1167
-83.2689
-83.269
-83.269
-83.2682
-83.2674
-83.2658
-83.2632
-83.2596
-83.2544
-83.2477
-83.2391
-83.2277
-83.2127
-83.1939
-83.1694
-83.1383
-83.0988
-83.0494
-82.989
-82.9134
-82.8302
-82.7414
-82.605
-84.3432
-84.3427
-84.3429
-84.3424
-84.3416
-84.3399
-84.3375
-84.3339
-84.3288
-84.322
-84.3129
-84.3006
-84.2846
-84.2637
-84.2367
-84.2022
-84.1579
-84.1009
-84.0283
-83.9349
-83.8269
-83.6622
-83.3951
-85.4218
-85.4214
-85.4216
-85.4213
-85.4199
-85.4182
-85.4156
-85.4118
-85.4059
-85.3985
-85.3883
-85.3753
-85.3579
-85.3356
-85.3067
-85.2695
-85.222
-85.1619
-85.0852
-84.9882
-84.8704
-84.6896
-84.5681
-86.5234
-86.5239
-86.5233
-86.5228
-86.5215
-86.5197
-86.5171
-86.513
-86.5072
-86.4996
-86.4894
-86.4756
-86.4576
-86.4342
-86.4044
-86.3658
-86.3163
-86.2537
-86.1738
-86.0714
-85.9385
-85.7561
-85.6274
-87.6027
-87.6028
-87.6031
-87.6023
-87.6013
-87.5996
-87.5971
-87.593
-87.5875
-87.5797
-87.5696
-87.5558
-87.5377
-87.5142
-87.4841
-87.4453
-87.3959
-87.3331
-87.2545
-87.1553
-87.0351
-86.9121
-86.7946
-88.7296
-88.7293
-88.7295
-88.7286
-88.7279
-88.7256
-88.7234
-88.7197
-88.7138
-88.706
-88.6957
-88.6817
-88.6633
-88.6389
-88.6068
-88.5644
-88.5089
-88.4356
-88.3404
-88.2114
-88.0456
-87.8272
-87.4935
-89.9621
-89.9626
-89.9623
-89.962
-89.9603
-89.959
-89.9558
-89.9514
-89.9456
-89.9378
-89.9275
-89.9142
-89.8969
-89.8745
-89.8458
-89.8096
-89.7633
-89.7049
-89.6321
-89.5356
-89.4241
-89.2724
-89.0195
-91.1192
-91.1194
-91.119
-91.1185
-91.1177
-91.1154
-91.1124
-91.1082
-91.1024
-91.0946
-91.084
-91.0701
-91.0524
-91.0297
-91.0012
-90.9656
-90.9216
-90.8694
-90.8076
-90.7335
-90.6749
-90.6055
-90.5782
-92.1839
-92.1838
-92.1833
-92.1833
-92.1821
-92.1805
-92.1779
-92.1737
-92.1683
-92.1608
-92.1509
-92.1376
-92.1199
-92.0964
-92.0658
-92.0262
-91.9749
-91.9078
-91.8198
-91.7006
-91.5562
-91.3087
-91.0782
-93.3994
-93.3994
-93.3993
-93.3983
-93.3971
-93.395
-93.392
-93.3872
-93.381
-93.3724
-93.361
-93.3458
-93.3264
-93.3013
-93.2691
-93.2285
-93.1771
-93.1097
-93.0242
-92.9126
-92.7783
-92.5703
-92.4402
-94.549
-94.5493
-94.5489
-94.5489
-94.5478
-94.5461
-94.5436
-94.5397
-94.5345
-94.5276
-94.5183
-94.5061
-94.4903
-94.4695
-94.4426
-94.4084
-94.3644
-94.3067
-94.2354
-94.1432
-94.0357
-93.8754
-93.7313
-95.7279
-95.7273
-95.7278
-95.7266
-95.7253
-95.7239
-95.7205
-95.7167
-95.7108
-95.7029
-95.6927
-95.6793
-95.6618
-95.6394
-95.6104
-95.5741
-95.528
-95.4717
-95.4025
-95.3196
-95.2326
-95.134
-95.1333
-96.8668
-96.8669
-96.8668
-96.8663
-96.8655
-96.863
-96.8605
-96.8557
-96.8493
-96.841
-96.8299
-96.8149
-96.795
-96.7701
-96.7374
-96.695
-96.6401
-96.5701
-96.4773
-96.3501
-96.1917
-95.9587
-95.6672
-98.1231
-98.1232
-98.1227
-98.1224
-98.1212
-98.1194
-98.116
-98.1119
-98.1061
-98.0984
-98.0882
-98.0747
-98.0568
-98.034
-98.0045
-97.9668
-97.9191
-97.8581
-97.7784
-97.6704
-97.5419
-97.3248
-97.0579
-99.3689
-99.3686
-99.3685
-99.3684
-99.367
-99.3648
-99.3622
-99.3576
-99.3521
-99.3444
-99.3346
-99.3217
-99.305
-99.2841
-99.2581
-99.2259
-99.1862
-99.1375
-99.0786
-99.0094
-98.946
-98.8537
-98.9092
-100.548
-100.549
-100.548
-100.548
-100.547
-100.545
-100.542
-100.538
-100.533
-100.526
-100.516
-100.504
-100.488
-100.467
-100.44
-100.406
-100.363
-100.307
-100.238
-100.15
-100.049
-99.8981
-99.8309
-101.724
-101.724
-101.724
-101.723
-101.722
-101.72
-101.717
-101.712
-101.706
-101.697
-101.686
-101.671
-101.652
-101.628
-101.598
-101.559
-101.51
-101.449
-101.377
-101.284
-101.184
-101.046
-100.942
-102.76
-102.759
-102.759
-102.759
-102.758
-102.757
-102.754
-102.749
-102.744
-102.736
-102.725
-102.711
-102.692
-102.668
-102.636
-102.595
-102.542
-102.476
-102.39
-102.276
-102.148
-101.967
-101.83
-103.895
-103.895
-103.895
-103.894
-103.894
-103.892
-103.89
-103.887
-103.881
-103.874
-103.865
-103.852
-103.835
-103.812
-103.782
-103.742
-103.689
-103.619
-103.526
-103.395
-103.229
-102.948
-102.588
-105.143
-105.143
-105.143
-105.143
-105.142
-105.14
-105.137
-105.133
-105.128
-105.12
-105.11
-105.097
-105.08
-105.058
-105.03
-104.995
-104.951
-104.896
-104.828
-104.746
-104.662
-104.544
-104.567
-106.298
-106.298
-106.297
-106.297
-106.296
-106.294
-106.292
-106.288
-106.282
-106.276
-106.266
-106.254
-106.238
-106.217
-106.191
-106.157
-106.114
-106.059
-105.991
-105.905
-105.805
-105.652
-105.541
-107.437
-107.436
-107.437
-107.436
-107.435
-107.434
-107.431
-107.427
-107.422
-107.415
-107.406
-107.394
-107.378
-107.358
-107.333
-107.301
-107.26
-107.211
-107.152
-107.082
-107.011
-106.94
-106.957
-108.513
-108.513
-108.512
-108.512
-108.511
-108.509
-108.506
-108.502
-108.496
-108.489
-108.479
-108.466
-108.448
-108.426
-108.398
-108.361
-108.314
-108.254
-108.177
-108.074
-107.953
-107.776
-107.543
-109.585
-109.585
-109.584
-109.584
-109.583
-109.581
-109.578
-109.575
-109.57
-109.563
-109.554
-109.542
-109.527
-109.507
-109.482
-109.45
-109.409
-109.36
-109.298
-109.221
-109.142
-109.021
-108.898
-110.605
-110.606
-110.605
-110.605