/*--------------------------------*- C++ -*----------------------------------*\
  =========                 |
  \\      /  F ield         | OpenFOAM: The Open Source CFD Toolbox
   \\    /   O peration     | Website:  https://openfoam.org
    \\  /    A nd           | Version:  10
     \\/     M anipulation  |
\*---------------------------------------------------------------------------*/
FoamFile
{
    format      ascii;
    class       surfaceScalarField;
    location    "300";
    object      phi;
}
// * * * * * * * * * * * * * * * * * * * * * * * * * * * * * * * * * * * * * //

dimensions      [0 3 -1 0 0 0 0];

internalField   nonuniform List<scalar> 
154254
(
1.02476e-07
1.12727e-05
-1.13297e-05
9.63679e-07
4.36443e-05
-4.44456e-05
2.2387e-06
9.57701e-05
-9.6986e-05
3.61706e-06
0.000168996
-0.000170318
7.18423e-06
0.000256579
-0.000260102
9.76735e-06
0.000360509
-0.000363047
1.42451e-05
0.000483066
-0.000487509
1.98293e-05
0.000632461
-0.000638001
2.67532e-05
0.00081357
-0.000820464
3.5071e-05
0.00103872
-0.00104699
4.52134e-05
0.00131591
-0.00132603
5.73221e-05
0.00165742
-0.00166948
7.19555e-05
0.00207875
-0.00209336
8.96416e-05
0.00260374
-0.00262139
0.00010902
0.00325144
-0.00327079
0.00013588
0.00405002
-0.00407687
0.000165938
0.00503753
-0.00506756
0.00019966
0.00625803
-0.00629177
0.000242846
0.00775623
-0.00779938
0.000288838
0.00959463
-0.00964066
0.000345189
0.0118333
-0.0118896
0.000407646
0.0145655
-0.0146279
0.0179958
-0.0180541
0.000466018
5.99382e-07
-1.84458e-05
1.82768e-05
1.5593e-06
-7.08711e-05
7.03989e-05
2.79233e-06
-0.000150628
0.000149811
4.19106e-06
-0.000252779
0.000251671
5.36108e-06
-0.000366649
0.000365684
7.99991e-06
-0.000500539
0.000498044
9.88471e-06
-0.000657433
0.000655651
1.25348e-05
-0.000847694
0.000845122
1.34752e-05
-0.00107965
0.00107876
1.66378e-05
-0.00136449
0.00136137
2.0434e-05
-0.00171627
0.00171249
2.50488e-05
-0.00214587
0.00214127
3.0645e-05
-0.00267593
0.00267032
3.90639e-05
-0.00332969
0.00332126
4.57856e-05
-0.00413089
0.00412412
5.69792e-05
-0.00511719
0.00510599
6.82892e-05
-0.00632153
0.00631017
8.21858e-05
-0.00778727
0.00777343
9.83093e-05
-0.00954951
0.00953336
0.00011924
-0.0116721
0.011651
0.000141558
-0.0142305
0.0142081
0.00017242
-0.0173427
0.0173117
-0.0211634
0.0211261
0.000209623
-2.66163e-07
-1.85368e-05
-2.67377e-07
-7.12253e-05
9.01499e-08
-0.000151336
8.95472e-07
-0.000253769
2.22176e-06
-0.000368155
3.24484e-06
-0.000501629
4.87562e-06
-0.000659161
6.95662e-06
-0.000849789
9.43047e-06
-0.00108219
1.38799e-05
-0.00136892
1.62444e-05
-0.00171867
2.09407e-05
-0.00215054
2.81885e-05
-0.00268321
3.32658e-05
-0.00333472
4.19328e-05
-0.0041396
5.24975e-05
-0.0051277
6.64555e-05
-0.00633552
7.81208e-05
-0.00779892
9.62978e-05
-0.0095677
0.000115905
-0.0116919
0.000143107
-0.0142577
0.000172053
-0.0173718
-0.021197
0.000205829
-4.03688e-07
-9.49765e-06
1.03081e-05
-2.86871e-06
-3.67969e-05
3.97451e-05
-7.72582e-06
-8.11249e-05
8.64578e-05
-1.39857e-05
-0.0001451
0.000151721
-2.10103e-05
-0.000223803
0.000231101
-2.90098e-05
-0.000314875
0.000323063
-3.47215e-05
-0.000426324
0.00043218
-4.00234e-05
-0.00055963
0.000565043
-4.45977e-05
-0.000723064
0.000727729
-4.39154e-05
-0.000928651
0.00092804
-4.10451e-05
-0.00117995
0.00117714
-3.47613e-05
-0.00149299
0.00148675
-1.95587e-05
-0.0018838
0.00186863
2.54644e-06
-0.00236822
0.00234616
3.3675e-05
-0.0029682
0.0029371
8.38613e-05
-0.00371634
0.00366622
0.00014986
-0.00464085
0.00457488
0.000236883
-0.00578477
0.00569784
0.000343327
-0.00719689
0.00709047
0.000477162
-0.00893695
0.00880324
0.000631351
-0.0110624
0.0109082
0.000812214
-0.0136685
0.0134878
-0.0169563
0.0167473
0.00102129
1.53776e-05
-7.89991e-06
-7.66313e-06
3.88745e-05
-1.21599e-05
-1.19189e-05
8.39787e-05
-2.27954e-05
-2.25144e-05
0.000165436
-4.13724e-05
-4.10494e-05
0.000276642
-5.56984e-05
-5.54385e-05
0.00043939
-8.19328e-05
-8.17039e-05
0.000661133
-0.000110747
-0.000110596
0.000933942
-0.000136784
-0.000136626
0.00129431
-0.00017994
-0.000179726
0.00170309
-0.000204666
-0.000204389
0.00218846
-0.000242554
-0.000242035
0.00277883
-0.00029559
-0.000294762
0.00346218
-0.000341881
-0.000340579
0.0042233
-0.000381379
-0.000379414
0.00511479
-0.000447076
-0.000443592
0.00610644
-0.000498555
-0.0004925
0.00719297
-0.000547933
-0.000537868
0.00836143
-0.00059162
-0.000575997
0.00962367
-0.000642192
-0.000619449
0.0109869
-0.000696921
-0.000665148
0.0124537
-0.000755897
-0.000710467
0.0140422
-0.000822474
-0.000765082
-0.000900962
-0.000809831
0.0157539
2.88639e-07
9.3918e-06
-9.6046e-06
1.18322e-06
3.66766e-05
-3.74653e-05
2.97205e-06
8.12699e-05
-8.29676e-05
5.94774e-06
0.000145953
-0.000148836
1.07877e-05
0.000224991
-0.000229777
1.62595e-05
0.000319215
-0.000324627
2.33247e-05
0.000430782
-0.000437818
3.21239e-05
0.000567301
-0.000576055
4.18219e-05
0.000734704
-0.000744381
5.65018e-05
0.000940973
-0.000955615
7.27062e-05
0.0011974
-0.00121359
9.11804e-05
0.00151588
-0.00153432
0.000116345
0.00190893
-0.00193409
0.000143621
0.00240013
-0.00242737
0.00017838
0.00300626
-0.00304103
0.000218494
0.0037613
-0.00380137
0.000270268
0.00469217
-0.00474394
0.000328842
0.00585005
-0.00590859
0.000400895
0.00727449
-0.00734654
0.000486731
0.00902865
-0.00911446
0.000588126
0.0111717
-0.0112731
0.000707913
0.013798
-0.0139177
0.0171022
-0.0172419
0.000847678
-9.30488e-08
-1.91204e-07
-3.33176e-08
8.39365e-07
2.03183e-06
6.38208e-06
1.08381e-05
1.8515e-05
3.01541e-05
4.248e-05
5.9933e-05
8.28304e-05
0.000107961
0.000139883
0.000177957
0.000222954
0.000274278
0.000339616
0.000417211
0.000509035
0.000618463
0.000747942
0.000893852
2.52436e-07
1.07968e-05
-1.09952e-05
1.04347e-06
4.18375e-05
-4.2557e-05
2.57593e-06
9.20172e-05
-9.34797e-05
4.89593e-06
0.000163104
-0.00016536
7.19844e-06
0.000249312
-0.000251566
1.209e-05
0.000348942
-0.000353787
1.70156e-05
0.000469548
-0.000474436
2.31976e-05
0.00061548
-0.00062162
2.94123e-05
0.000793977
-0.00080016
3.8513e-05
0.0010132
-0.00102225
5.11289e-05
0.00128325
-0.00129584
6.44488e-05
0.00161976
-0.00163303
7.90267e-05
0.00203643
-0.00205099
9.83007e-05
0.00254936
-0.00256859
0.000122935
0.00318456
-0.00320918
0.000148813
0.00397348
-0.00399933
0.000181662
0.00494604
-0.00497887
0.000220637
0.00614764
-0.0061866
0.000266629
0.00762834
-0.00767431
0.000320066
0.00944372
-0.00949716
0.000380647
0.0116596
-0.0117202
0.000450251
0.0143665
-0.014436
0.017773
-0.0178533
0.000530537
2.60043e-07
1.05957e-05
1.073e-06
4.10976e-05
2.70269e-06
9.04618e-05
5.12538e-06
0.000160742
8.4958e-06
0.000245992
1.27433e-05
0.000344737
1.70039e-05
0.000465323
2.47381e-05
0.000607782
3.29207e-05
0.000785824
4.28617e-05
0.00100329
5.33704e-05
0.00127277
6.77965e-05
0.00160536
8.65897e-05
0.00201766
0.000107228
0.00252875
0.0001303
0.00316151
0.00015959
0.00394422
0.000194542
0.0049111
0.000236156
0.00610603
0.00028511
0.0075794
0.000340879
0.00938792
0.000408245
0.0115922
0.00048685
0.0142879
0.0176812
0.000578712
2.80022e-07
1.03827e-05
1.16567e-06
4.02997e-05
2.88432e-06
8.88252e-05
5.59945e-06
0.000158104
9.18047e-06
0.000242464
1.37841e-05
0.000340185
1.9659e-05
0.000459482
2.68255e-05
0.000600656
3.56942e-05
0.000776981
4.63757e-05
0.000992643
5.93644e-05
0.0012598
7.49618e-05
0.0015898
9.35797e-05
0.00199905
0.000114226
0.00250813
0.0001423
0.00313344
0.000173593
0.00391295
0.000208997
0.00487569
0.000252903
0.00606214
0.000302674
0.00752962
0.000362443
0.00932816
0.000431026
0.0115237
0.000507934
0.0142109
0.0175963
0.000592851
3.15501e-07
1.01302e-05
1.29924e-06
3.93997e-05
3.20935e-06
8.69918e-05
6.2202e-06
0.000155167
1.01592e-05
0.000238574
1.53351e-05
0.00033506
2.27924e-05
0.000452056
2.96742e-05
0.000593813
3.9343e-05
0.000767339
5.10924e-05
0.00098093
6.53605e-05
0.00124556
8.24876e-05
0.00157271
0.000101329
0.00198023
0.000127342
0.00248216
0.000154625
0.00310617
0.00018905
0.00387857
0.000231443
0.00483332
0.000277706
0.0060159
0.000334544
0.0074728
0.000401393
0.00926129
0.000480069
0.011445
0.000571829
0.0141192
0.0174811
0.000687015
3.3625e-07
9.87478e-06
1.40075e-06
3.8448e-05
3.42057e-06
8.50672e-05
6.53445e-06
0.000152155
1.16073e-05
0.000233558
1.6157e-05
0.00033058
2.30725e-05
0.000445172
3.15846e-05
0.000585355
4.19899e-05
0.000756955
5.48514e-05
0.000968117
7.01218e-05
0.0012303
8.84999e-05
0.00155438
0.000110678
0.00195807
0.000136985
0.0024559
0.000168199
0.00307497
0.000205358
0.00384146
0.000247486
0.00479119
0.000299268
0.00596416
0.00035999
0.00741208
0.000431598
0.00918973
0.000512696
0.0113639
0.000608874
0.014023
0.0173717
0.000718315
3.25185e-07
1.38595e-06
3.5508e-06
6.94084e-06
1.07599e-05
1.67597e-05
2.41347e-05
3.34693e-05
4.60596e-05
5.85925e-05
7.53198e-05
9.54015e-05
0.000119392
0.000147952
0.000181906
0.000222036
0.000269297
0.000324883
0.000390429
0.000465658
0.000556398
0.000661694
0.000791522
2.79894e-07
-1.11702e-05
1.03347e-06
-4.31733e-05
2.42014e-06
-9.47389e-05
3.88214e-06
-0.000166703
7.35425e-06
-0.000254955
1.09673e-05
-0.00035732
1.54457e-05
-0.000478859
1.9947e-05
-0.000626056
2.80568e-05
-0.000808224
3.65903e-05
-0.00103072
4.54421e-05
-0.00130465
5.79939e-05
-0.00164552
7.31555e-05
-0.00206612
9.12254e-05
-0.00258659
0.000112857
-0.00323077
0.000138891
-0.0040253
0.000169942
-0.00500988
0.000205066
-0.0062217
0.000248384
-0.0077176
0.000298957
-0.00954773
0.000357897
-0.0117791
0.000425942
-0.0145041
-0.0179304
0.000503068
-1.29336e-05
2.29667e-05
-3.30139e-05
5.92727e-05
-4.49411e-05
9.8152e-05
-5.7017e-05
0.000163522
-8.22396e-05
0.00025625
-0.000104364
0.000345104
-0.00012274
0.000450539
-0.000137166
0.000579409
-0.000147496
0.000738063
-0.000153292
0.000933758
-0.000169248
0.00119312
-0.000174516
0.00149196
-0.000167595
0.00186177
-0.000157982
0.00233654
-0.000137175
0.00291638
-7.74151e-05
0.0036065
1.79994e-05
0.00447955
0.000130369
0.00558556
0.000300568
0.00692034
0.000489265
0.00861464
0.000715507
0.010682
0.000944816
0.0132587
0.01649
0.00120215
2.10677e-07
8.22266e-07
1.98505e-06
4.39681e-06
6.10587e-06
9.3737e-06
1.36366e-05
2.01027e-05
2.54922e-05
3.35483e-05
4.48392e-05
5.67887e-05
6.94464e-05
8.66316e-05
0.000107312
0.000132061
0.000159728
0.000196074
0.00023473
0.000281606
0.000335805
0.000397211
0.00046263
5.75625e-08
1.2557e-05
-1.26403e-05
3.61958e-07
4.86855e-05
-4.90198e-05
1.05299e-06
0.000106269
-0.000106993
2.97747e-06
0.000184746
-0.000186703
3.67329e-06
0.000279763
-0.000280483
5.58073e-06
0.000388316
-0.000390255
8.1772e-06
0.000519161
-0.000521773
1.12657e-05
0.000675823
-0.000678948
1.51874e-05
0.000869561
-0.000873487
1.98951e-05
0.00110415
-0.0011089
2.55036e-05
0.00139535
-0.00140096
3.078e-05
0.00175526
-0.00176056
4.05202e-05
0.0021965
-0.00220623
4.92201e-05
0.00274355
-0.00275222
6.19018e-05
0.00341783
-0.00343041
7.54957e-05
0.00424998
-0.00426354
9.18313e-05
0.00527563
-0.00529183
0.000110589
0.00653754
-0.00655638
0.000131526
0.00808879
-0.00810957
0.000157954
0.00998114
-0.010008
0.000191704
0.0122919
-0.0123254
0.000230114
0.0151098
-0.0151486
0.0186225
-0.0186817
0.000289174
3.43524e-07
-1.16188e-05
8.50874e-07
-4.48835e-05
2.33066e-06
-9.83939e-05
4.48598e-06
-0.000172414
7.37499e-06
-0.000262944
1.20436e-05
-0.000367677
1.67076e-05
-0.000492136
2.1089e-05
-0.000642353
2.91128e-05
-0.000828465
3.6127e-05
-0.00105399
4.58545e-05
-0.00133574
5.79122e-05
-0.00168153
7.23085e-05
-0.00210774
8.96355e-05
-0.00263874
0.00011048
-0.00329166
0.000133884
-0.00410032
0.000163933
-0.00509765
0.000201467
-0.00632935
0.000242277
-0.00784019
0.00029307
-0.00969146
0.000352795
-0.0119493
0.000433563
-0.0147085
-0.0181574
0.00053707
1.42929e-07
-1.17877e-05
7.27654e-07
-4.55034e-05
1.8555e-06
-9.95553e-05
3.75114e-06
-0.000174335
6.26843e-06
-0.000265483
9.60634e-06
-0.000371026
1.36565e-05
-0.000496205
1.86207e-05
-0.000647321
2.3461e-05
-0.000833322
3.21343e-05
-0.00106266
4.10805e-05
-0.0013447
5.03918e-05
-0.00169084
6.49828e-05
-0.00212234
8.07004e-05
-0.00265446
9.95411e-05
-0.00331051
0.000122178
-0.00412296
0.000148954
-0.00512444
0.000178676
-0.00635906
0.000213307
-0.00787485
0.000256983
-0.00973506
0.000306076
-0.0119984
0.000364074
-0.0147662
-0.0182256
0.000432286
1.84931e-07
-1.19452e-05
7.76189e-07
-4.60701e-05
1.98016e-06
-0.000100726
3.82196e-06
-0.000176161
6.30424e-06
-0.000267946
9.42085e-06
-0.000374136
1.21464e-05
-0.000498921
1.82228e-05
-0.000653397
2.38484e-05
-0.000838946
3.09024e-05
-0.00106972
3.80102e-05
-0.00135181
4.97113e-05
-0.00170255
6.21835e-05
-0.00213483
7.55671e-05
-0.00266786
9.36695e-05
-0.00332862
0.000115095
-0.00414439
0.000140608
-0.00514996
0.000170315
-0.0063888
0.000205205
-0.00790975
0.000245546
-0.00977548
0.000293536
-0.0120464
0.000344679
-0.0148174
-0.0182812
0.000400412
1.05747e-07
-1.20873e-05
6.33973e-07
-4.66457e-05
1.80385e-06
-0.00010194
3.57842e-06
-0.00017797
5.92926e-06
-0.000270322
7.84791e-06
-0.000376072
1.26281e-05
-0.000503719
1.69606e-05
-0.000657738
2.25616e-05
-0.000844557
2.91704e-05
-0.00107632
3.7295e-05
-0.00135994
4.70574e-05
-0.0017123
5.73952e-05
-0.00214516
7.33406e-05
-0.00268378
8.8746e-05
-0.00334402
0.000109268
-0.0041649
0.000133476
-0.00517416
0.000162323
-0.00641767
0.000196234
-0.00794366
0.000236416
-0.00981576
0.000281664
-0.0120917
0.000340209
-0.014876
-0.0183495
0.000408508
3.0037e-08
-1.21275e-05
7.36339e-07
-4.73697e-05
1.20851e-06
-0.000102424
3.37109e-06
-0.00018015
4.51904e-06
-0.000271477
7.97548e-06
-0.000379543
1.10843e-05
-0.000506833
1.38106e-05
-0.000660479
1.97851e-05
-0.000850534
2.43879e-05
-0.00108094
3.31588e-05
-0.00136872
4.05253e-05
-0.00171969
5.28061e-05
-0.00215746
6.40424e-05
-0.00269502
8.11762e-05
-0.0033612
9.76958e-05
-0.00418139
0.000119559
-0.00519609
0.000143336
-0.00644138
0.000175425
-0.00797583
0.000208119
-0.00984836
0.000248524
-0.0121322
0.000294705
-0.0149221
-0.0184079
0.000353052
1.2197e-07
-1.23099e-05
1.63808e-07
-4.75054e-05
1.31851e-06
-0.000103644
2.45498e-06
-0.000181365
4.0779e-06
-0.000273132
6.23169e-06
-0.000381753
8.03423e-06
-0.000508649
1.27992e-05
-0.00066529
1.6093e-05
-0.000853827
2.29943e-05
-0.00108788
2.84855e-05
-0.0013742
3.68621e-05
-0.00172809
4.69929e-05
-0.00216758
5.90848e-05
-0.00270712
7.3458e-05
-0.00337559
9.06458e-05
-0.00419855
0.000110842
-0.00521634
0.000135121
-0.0064656
0.000159437
-0.0080002
0.000190713
-0.00987951
0.000229598
-0.012171
0.00026667
-0.0149593
-0.0184444
0.000303053
4.85058e-08
-1.24263e-05
3.06539e-07
-4.78625e-05
5.21409e-07
-0.000103933
1.65612e-06
-0.000182585
3.43987e-06
-0.000274956
5.83143e-06
-0.000384208
9.9286e-06
-0.000512766
1.26294e-05
-0.000668045
1.74134e-05
-0.000858616
2.33536e-05
-0.00109386
3.04888e-05
-0.00138134
4.07164e-05
-0.00173834
4.94766e-05
-0.00217635
6.20573e-05
-0.0027197
7.68513e-05
-0.00339039
9.43948e-05
-0.00421608
0.000113869
-0.00523581
0.000139834
-0.0064916
0.000166408
-0.00802678
0.000201257
-0.00991454
0.000237281
-0.012207
0.000287029
-0.0150093
-0.0184923
0.000334782
2.6946e-08
-1.25302e-05
3.64731e-07
-4.83033e-05
1.67079e-06
-0.00010533
2.37551e-06
-0.00018337
5.13212e-06
-0.000277767
6.68439e-06
-0.00038581
1.0032e-05
-0.000516152
1.40715e-05
-0.000672119
2.04402e-05
-0.000865016
2.50963e-05
-0.00109854
3.23592e-05
-0.00138863
4.12304e-05
-0.00174722
5.19028e-05
-0.00218706
6.4353e-05
-0.00273216
7.75167e-05
-0.00340363
9.71826e-05
-0.00423575
0.000117792
-0.00525651
0.000140915
-0.00651471
0.000174081
-0.00806001
0.000207934
-0.00994841
0.000253182
-0.0122523
0.000306115
-0.0150622
-0.0185633
0.000376997
3.9977e-08
4.59036e-07
1.40087e-06
2.81189e-06
4.79515e-06
7.32655e-06
1.03087e-05
1.40326e-05
1.8543e-05
2.41672e-05
3.08512e-05
3.88952e-05
4.82875e-05
5.96721e-05
7.3781e-05
8.80329e-05
0.000107087
0.000130033
0.000158778
0.000191623
0.00023119
0.000278506
0.000337774
5.26539e-08
-1.41477e-05
1.40222e-05
1.50243e-07
-5.44907e-05
5.42823e-05
2.34744e-08
-0.000117799
0.00011787
1.35334e-06
-0.000204037
0.000202628
2.28188e-06
-0.000304134
0.000303201
3.41386e-06
-0.000420407
0.000419234
3.73528e-06
-0.00055759
0.000557298
6.73825e-06
-0.000726472
0.00072345
7.68232e-06
-0.000927786
0.000926888
1.17803e-05
-0.00117895
0.00117485
1.48681e-05
-0.00148656
0.00148353
1.76297e-05
-0.00186228
0.00185953
2.25704e-05
-0.00232987
0.00232505
2.84125e-05
-0.00290346
0.00289762
3.55829e-05
-0.00361116
0.00360408
4.41558e-05
-0.00448362
0.00447501
5.61958e-05
-0.00555826
0.00554626
6.88794e-05
-0.00687426
0.00686151
8.59247e-05
-0.00848768
0.00847064
0.000105085
-0.0104583
0.0104393
0.0001269
-0.0128586
0.0128365
0.000157234
-0.0157912
0.0157612
-0.0194322
0.01939
0.000199642
8.09682e-08
-1.42237e-05
2.9946e-07
-5.47455e-05
1.29132e-06
-0.000118768
1.19215e-06
-0.000203975
2.09089e-06
-0.000304988
3.14885e-06
-0.000421496
4.56063e-06
-0.000558952
6.20859e-06
-0.000728151
9.64406e-06
-0.000931162
1.18772e-05
-0.00118121
1.37637e-05
-0.00148841
1.86403e-05
-0.00186718
2.31119e-05
-0.00233429
2.84607e-05
-0.00290882
3.50899e-05
-0.00361766
4.29476e-05
-0.00449151
5.11982e-05
-0.00556632
6.3983e-05
-0.00688732
7.61351e-05
-0.00849963
9.2169e-05
-0.0104752
0.00011402
-0.0128809
0.000139797
-0.0158172
-0.0194644
0.000172006
5.31046e-08
-1.27389e-05
3.64178e-07
-4.94031e-05
1.03938e-06
-0.000107715
2.07403e-06
-0.000187807
3.51332e-06
-0.000281952
5.41122e-06
-0.000392214
7.6689e-06
-0.000524043
1.06052e-05
-0.000681947
1.29123e-05
-0.000875803
1.84073e-05
-0.00111446
2.36951e-05
-0.00140625
3.02873e-05
-0.00176724
3.60241e-05
-0.00221194
4.61583e-05
-0.00276248
5.49631e-05
-0.00343923
6.7353e-05
-0.00427606
8.35628e-05
-0.0053081
0.000100988
-0.00657382
0.000121003
-0.00812966
0.000145427
-0.0100321
0.000166055
-0.0123461
0.000191068
-0.0151737
-0.018686
0.00019501
1.51537e-07
-1.29553e-05
4.97041e-07
-4.98437e-05
1.24171e-06
-0.000108528
1.59594e-06
-0.000188242
4.01655e-06
-0.000284411
5.9023e-06
-0.000394163
8.40601e-06
-0.000526565
1.13278e-05
-0.000684927
1.49287e-05
-0.000879418
1.90358e-05
-0.00111863
2.44444e-05
-0.00141167
3.09053e-05
-0.00177376
3.86092e-05
-0.00221964
4.61366e-05
-0.00277008
5.89892e-05
-0.00345208
7.19e-05
-0.00428906
8.8073e-05
-0.00532428
0.000107537
-0.00659336
0.000131101
-0.00815327
0.000159931
-0.0100608
0.000197477
-0.0123836
0.000245022
-0.0152211
-0.0187472
0.000306322
-2.25122e-08
-1.30342e-05
1.57389e-07
-5.01681e-05
7.5229e-07
-0.000109238
1.82498e-06
-0.000189434
2.03554e-06
-0.000284688
4.35404e-06
-0.000396563
7.25722e-06
-0.000529507
9.37495e-06
-0.00068711
1.29076e-05
-0.000882975
1.55184e-05
-0.00112129
2.15493e-05
-0.00141771
2.62378e-05
-0.0017785
3.45995e-05
-0.00222801
4.47866e-05
-0.00278031
5.3343e-05
-0.00346063
6.55912e-05
-0.00430134
8.02539e-05
-0.00533895
9.76625e-05
-0.00661079
0.000118194
-0.00817381
0.000141787
-0.0100844
0.000169702
-0.0124115
0.000201421
-0.0152528
-0.0187832
0.000237388
-1.16671e-07
-1.29876e-05
3.35523e-07
-5.07147e-05
5.02373e-07
-0.000109485
2.12793e-06
-0.000191136
3.41842e-06
-0.000286028
4.84984e-06
-0.000398047
6.06873e-06
-0.000530758
9.61143e-06
-0.000690696
1.17928e-05
-0.000885182
1.81725e-05
-0.00112771
2.03333e-05
-0.0014199
2.72746e-05
-0.00178548
3.30155e-05
-0.00223376
4.14178e-05
-0.00278875
5.29121e-05
-0.00347214
6.50976e-05
-0.00431356
7.97451e-05
-0.0053536
9.726e-05
-0.00662832
0.00011773
-0.00819429
0.000142497
-0.0101092
0.000173484
-0.0124425
0.000208911
-0.0152883
-0.0188251
0.000250756
1.00872e-07
-1.31675e-05
3.81886e-08
-5.07608e-05
1.06126e-06
-0.000110597
6.35893e-07
-0.000190799
2.53352e-06
-0.000287978
4.33876e-06
-0.000399912
6.06779e-06
-0.000532519
8.79614e-06
-0.000693473
1.28848e-05
-0.000889294
1.52212e-05
-0.00113009
2.12593e-05
-0.00142595
2.67967e-05
-0.00179106
3.1914e-05
-0.00223889
3.99817e-05
-0.00279685
4.97328e-05
-0.0034819
6.14496e-05
-0.0043253
7.51632e-05
-0.00536732
9.20855e-05
-0.00664526
0.000112318
-0.00821453
0.000136437
-0.0101333
0.000164635
-0.0124707
0.000198902
-0.0153226
-0.0188684
0.000242193
3.52957e-08
-1.32422e-05
2.84321e-07
-5.10605e-05
4.098e-07
-0.000110769
1.76276e-06
-0.000192191
3.1024e-06
-0.000289348
4.35031e-06
-0.000401186
6.47897e-06
-0.000534669
8.54197e-06
-0.000695557
1.14375e-05
-0.000892208
1.38776e-05
-0.00113256
1.93419e-05
-0.00143143
2.46117e-05
-0.00179635
3.2607e-05
-0.0022469
3.99735e-05
-0.00280424
4.79405e-05
-0.00348987
6.05316e-05
-0.00433791
7.26269e-05
-0.00537942
9.03763e-05
-0.00666304
0.000109918
-0.00823407
0.000131265
-0.0101547
0.000159309
-0.0124987
0.000194795
-0.0153581
-0.0189114
0.000237752
7.32463e-08
-1.33516e-05
3.46893e-07
-5.1376e-05
7.4025e-07
-0.000111206
1.72577e-06
-0.000193206
2.654e-06
-0.000290306
3.28e-06
-0.00040183
5.97727e-06
-0.000537389
8.24406e-06
-0.000697839
1.10297e-05
-0.000895015
1.4448e-05
-0.00113599
1.74563e-05
-0.00143446
2.25046e-05
-0.00180141
2.82667e-05
-0.00225268
3.73094e-05
-0.00281329
4.44471e-05
-0.00349703
5.68673e-05
-0.00435035
6.96487e-05
-0.00539221
8.4517e-05
-0.00667792
0.000102618
-0.00825218
0.000125483
-0.0101776
0.000150312
-0.0125236
0.000176741
-0.0153846
-0.0189474
0.000212741
1.65668e-07
-1.35253e-05
5.15113e-07
-5.1727e-05
7.00279e-07
-0.000111406
2.14359e-06
-0.000194648
2.59459e-06
-0.000290773
4.86391e-06
-0.000404098
5.78956e-06
-0.000538332
8.06191e-06
-0.000700112
1.08347e-05
-0.000897808
1.5344e-05
-0.0011405
1.94776e-05
-0.00143862
2.44827e-05
-0.00180642
3.05032e-05
-0.00225873
3.61056e-05
-0.00281891
4.7914e-05
-0.00350886
5.52646e-05
-0.00435772
6.93481e-05
-0.00540632
8.30061e-05
-0.0066916
0.000102607
-0.00827181
0.000123986
-0.010199
0.000147081
-0.0125467
0.000178084
-0.0154156
-0.018979
0.000209633
6.14169e-08
-1.36165e-05
3.42003e-07
-5.20398e-05
8.7682e-07
-0.000111979
1.72884e-06
-0.000195524
3.58824e-06
-0.00029266
4.25637e-06
-0.000404779
6.97449e-06
-0.000541072
9.23054e-06
-0.000702378
1.19748e-05
-0.000900572
1.42276e-05
-0.00114276
1.94351e-05
-0.00144384
2.28055e-05
-0.0018098
3.03231e-05
-0.00226626
3.61539e-05
-0.00282475
4.61251e-05
-0.00351885
5.65203e-05
-0.00436813
6.72121e-05
-0.00541702
8.38148e-05
-0.00670822
0.000101995
-0.00829
0.000123788
-0.0102208
0.000151697
-0.0125746
0.000182315
-0.0154462
-0.0190216
0.000224933
4.33642e-08
-1.36658e-05
2.49033e-07
-5.22459e-05
7.31363e-07
-0.000112473
1.50994e-06
-0.000196302
2.58239e-06
-0.000293745
3.96547e-06
-0.000406163
5.66461e-06
-0.000542784
7.76881e-06
-0.000704485
1.03293e-05
-0.000903148
1.45643e-05
-0.001147
1.57168e-05
-0.00144501
2.18305e-05
-0.00181593
2.73771e-05
-0.00227183
3.37418e-05
-0.00283113
4.04766e-05
-0.0035256
5.1677e-05
-0.00437934
6.35188e-05
-0.00542889
7.77984e-05
-0.00672252
9.48287e-05
-0.00830705
0.00011462
-0.0102406
0.000138345
-0.0125984
0.000166085
-0.015474
-0.0190534
0.000197935
-7.98344e-08
-1.36025e-05
4.26396e-08
-5.23852e-05
9.74399e-07
-0.000113426
9.78421e-07
-0.00019632
2.83116e-06
-0.000295614
4.11391e-06
-0.000407455
4.54378e-06
-0.000543229
6.47289e-06
-0.000706423
8.84532e-06
-0.000905535
1.17682e-05
-0.00114994
1.68023e-05
-0.00145006
2.11601e-05
-0.0018203
2.48467e-05
-0.00227553
3.29258e-05
-0.00283922
4.03711e-05
-0.00353306
4.98439e-05
-0.00438883
6.13901e-05
-0.00544044
7.53553e-05
-0.00673649
9.01787e-05
-0.00832188
0.000112322
-0.0102627
0.000136159
-0.0126222
0.000167113
-0.0155049
-0.0190916
0.000205281
3.96395e-08
-1.36618e-05
2.44195e-07
-5.26132e-05
1.10773e-06
-0.000114317
1.84933e-06
-0.000197081
1.17844e-06
-0.000294964
4.23517e-06
-0.000410525
4.84188e-06
-0.000543854
6.70605e-06
-0.000708298
8.98322e-06
-0.00090783
1.17778e-05
-0.00115274
1.48985e-05
-0.0014532
1.9088e-05
-0.00182449
2.4163e-05
-0.00228062
3.0344e-05
-0.00284541
3.78477e-05
-0.00354057
4.69637e-05
-0.00439795
5.98208e-05
-0.0054533
7.11331e-05
-0.00674781
8.83996e-05
-0.00833913
0.000105003
-0.0102793
0.000126987
-0.0126441
0.000152438
-0.0155304
-0.0191225
0.000183294
1.24023e-07
-1.38125e-05
3.2234e-07
-5.28447e-05
-1.69983e-07
-0.000113858
1.20921e-06
-0.000198485
2.8099e-06
-0.000296588
2.0881e-06
-0.000409819
5.58601e-06
-0.000547371
7.41059e-06
-0.000710134
8.31118e-06
-0.000908747
1.10314e-05
-0.00115547
1.5831e-05
-0.00145802
1.83686e-05
-0.00182704
2.49188e-05
-0.0022872
2.93069e-05
-0.0028498
3.83545e-05
-0.00354965
4.55165e-05
-0.0044051
5.58823e-05
-0.00546369
7.06876e-05
-0.00676258
8.59897e-05
-0.00835447
0.000102123
-0.0102955
0.000123436
-0.0126654
0.000149526
-0.0155566
-0.0191523
0.00017926
-1.22645e-07
-1.36858e-05
2.64533e-08
-5.29889e-05
1.31121e-06
-0.000115138
1.21975e-06
-0.00019839
1.37449e-06
-0.00029674
3.28934e-06
-0.00041173
4.66712e-06
-0.000548748
6.39262e-06
-0.000711857
9.85378e-06
-0.000912209
1.10908e-05
-0.00115671
1.43139e-05
-0.00146124
1.82533e-05
-0.00183098
2.3072e-05
-0.00229202
2.8947e-05
-0.00285569
3.43756e-05
-0.00355509
4.62653e-05
-0.004417
5.53299e-05
-0.00547278
6.76909e-05
-0.00677495
8.28978e-05
-0.0083697
0.00010475
-0.0103173
0.000124648
-0.0126854
0.000149044
-0.0155809
-0.0191838
0.00018059
1.39892e-07
-1.3824e-05
3.62099e-07
-5.32067e-05
2.87424e-07
-0.000115062
8.97488e-07
-0.000198994
3.34049e-06
-0.000299182
3.60189e-06
-0.000411986
3.76737e-06
-0.000548914
5.39187e-06
-0.000713477
7.43616e-06
-0.000914255
1.13934e-05
-0.00116066
1.30466e-05
-0.0014629
1.84129e-05
-0.00183634
2.27803e-05
-0.00229639
2.85142e-05
-0.00286141
3.54668e-05
-0.00356203
4.24654e-05
-0.004424
5.41697e-05
-0.00548447
6.64552e-05
-0.00678726
7.91e-05
-0.00838234
9.44004e-05
-0.0103326
0.000118857
-0.0127098
0.000143452
-0.0156054
-0.0192153
0.00017499
8.58982e-08
-1.39019e-05
5.93544e-07
-5.37014e-05
6.44081e-07
-0.000115106
2.00978e-06
-0.000200349
1.97533e-06
-0.000299146
3.91393e-06
-0.000413916
4.35106e-06
-0.000549353
6.03073e-06
-0.000715149
9.17335e-06
-0.000917402
1.17736e-05
-0.00116325
1.37611e-05
-0.00146489
1.73253e-05
-0.0018399
2.23438e-05
-0.00230142
2.94404e-05
-0.0028685
3.64407e-05
-0.00356905
4.31674e-05
-0.00443072
5.34448e-05
-0.00549477
6.57984e-05
-0.00679961
8.1962e-05
-0.00839851
9.90994e-05
-0.0103498
0.000119161
-0.0127298
0.000144369
-0.0156308
-0.0192345
0.000163492
1.53588e-07
-1.40617e-05
2.03667e-07
-5.37548e-05
1.10109e-06
-0.000116014
1.28693e-06
-0.000200535
2.21858e-06
-0.000300086
3.41006e-06
-0.000415106
4.89373e-06
-0.000550845
7.74094e-06
-0.000717993
8.94458e-06
-0.000918614
1.17171e-05
-0.00116602
1.62698e-05
-0.00146945
1.91681e-05
-0.00184279
2.38782e-05
-0.00230613
3.03307e-05
-0.00287496
3.7809e-05
-0.00357655
4.83722e-05
-0.00444129
6.09438e-05
-0.00550737
7.24712e-05
-0.00681114
8.69864e-05
-0.00841304
0.000108146
-0.0103709
0.000132288
-0.012754
0.000161232
-0.0156597
-0.0192734
0.000200288
6.98007e-08
-1.41285e-05
2.95876e-07
-5.39738e-05
7.55891e-07
-0.000116469
2.06888e-06
-0.00020184
2.28419e-06
-0.000300298
3.45068e-06
-0.000416265
5.82696e-06
-0.000553217
6.63832e-06
-0.000718799
8.83239e-06
-0.000920806
1.15075e-05
-0.00116869
1.47956e-05
-0.00147274
2.00683e-05
-0.00184807
2.37064e-05
-0.00230977
3.10363e-05
-0.0028823
3.66376e-05
-0.00358216
4.55332e-05
-0.00445021
5.63298e-05
-0.00551817
7.11775e-05
-0.00682601
8.63909e-05
-0.00842827
0.000105105
-0.0103897
0.000128135
-0.012777
0.00015479
-0.0156863
-0.0193114
0.000192799
-4.0749e-08
-1.40929e-05
1.0723e-07
-5.41239e-05
4.50468e-07
-0.000116817
1.00912e-06
-0.000202398
2.50787e-06
-0.0003018
3.53196e-06
-0.000417289
3.9086e-06
-0.000553595
6.52354e-06
-0.000721415
8.52712e-06
-0.000922811
9.60133e-06
-0.00116977
1.41224e-05
-0.00147726
1.79e-05
-0.00185185
2.25313e-05
-0.00231441
2.6518e-05
-0.00288629
3.50823e-05
-0.00359072
4.34005e-05
-0.00445853
5.1626e-05
-0.0055264
6.52321e-05
-0.00683964
7.96258e-05
-0.00844266
9.67385e-05
-0.0104068
0.000115481
-0.0127958
0.000142632
-0.0157134
-0.0193447
0.000175941
3.95885e-08
-1.41744e-05
5.4513e-08
-5.4205e-05
2.71478e-07
-0.000117078
-8.11375e-08
-0.000202096
5.34325e-07
-0.000302434
1.6153e-06
-0.0004184
3.76067e-06
-0.000555747
4.30992e-06
-0.000721981
6.02341e-06
-0.000924516
9.85832e-06
-0.00117361
1.1442e-05
-0.00147883
1.51823e-05
-0.00185557
2.1053e-05
-0.00232025
2.52591e-05
-0.00289046
3.33224e-05
-0.00359877
4.13935e-05
-0.00446655
5.103e-05
-0.00553604
5.91566e-05
-0.00684771
7.60736e-05
-0.00845961
8.97503e-05
-0.0104205
0.0001098
-0.0128158
0.000131164
-0.0157349
-0.0193641
0.000150442
-1.8654e-07
-1.8076e-07
5.93556e-07
1.06883e-06
1.84698e-06
2.6452e-06
4.23109e-06
5.67895e-06
8.09539e-06
9.32652e-06
1.40863e-05
1.80324e-05
2.28582e-05
3.00124e-05
3.53131e-05
4.37732e-05
5.39471e-05
6.77756e-05
7.86916e-05
9.75504e-05
0.00011812
0.000144352
0.000170081
9.42996e-09
-1.55512e-05
1.55311e-05
9.35968e-08
-6.00076e-05
5.99084e-05
2.48507e-07
-0.000128464
0.000128296
4.83969e-07
-0.00022015
0.000219901
7.7734e-07
-0.00032495
0.000324652
2.14871e-06
-0.000449166
0.000447784
1.6157e-06
-0.000593622
0.000594152
3.41076e-06
-0.00076904
0.000767234
2.98958e-06
-0.000982816
0.000983236
3.93316e-06
-0.00124504
0.00124408
5.07609e-06
-0.0015663
0.00156515
6.4296e-06
-0.00196355
0.00196218
8.05655e-06
-0.0024498
0.00244817
9.97044e-06
-0.00304904
0.00304711
1.22718e-05
-0.00378906
0.00378676
1.50065e-05
-0.0046983
0.00469555
1.82373e-05
-0.00581635
0.00581313
2.24613e-05
-0.00718887
0.00718461
2.91822e-05
-0.00886791
0.00886119
3.33018e-05
-0.0109173
0.0109131
4.2224e-05
-0.0134173
0.0134084
5.15968e-05
-0.016461
0.0164516
-0.0202213
0.0202116
6.12957e-05
1.237e-08
-1.55769e-05
-2.58776e-07
-5.97612e-05
-2.19408e-07
-0.000128513
-1.0149e-07
-0.00022029
1.74887e-07
-0.000325229
5.6423e-07
-0.000449574
1.0642e-06
-0.000594119
1.67494e-06
-0.000769668
2.44725e-06
-0.000983581
3.33452e-06
-0.00124594
4.4213e-06
-0.00156738
5.67116e-06
-0.00196482
7.17506e-06
-0.00245129
1.03563e-05
-0.00305224
1.09142e-05
-0.0037896
1.34309e-05
-0.00470082
1.66107e-05
-0.00581952
2.02388e-05
-0.0071925
2.4768e-05
-0.00887242
2.9961e-05
-0.0109225
3.56747e-05
-0.013423
4.03216e-05
-0.0164656
-0.0202327
5.17319e-05
1.43266e-08
-1.55981e-05
-2.23879e-07
-5.9538e-05
2.83537e-07
-0.000129024
-2.19959e-07
-0.000219801
1.68944e-06
-0.000327138
1.09111e-06
-0.000448987
5.43288e-07
-0.000593567
2.15519e-06
-0.000771291
2.84701e-06
-0.000984267
3.6518e-06
-0.00124676
5.89568e-06
-0.00156961
5.72234e-06
-0.00196466
7.09432e-06