/*--------------------------------*- C++ -*----------------------------------*\
  =========                 |
  \\      /  F ield         | OpenFOAM: The Open Source CFD Toolbox
   \\    /   O peration     | Website:  https://openfoam.org
    \\  /    A nd           | Version:  10
     \\/     M anipulation  |
\*---------------------------------------------------------------------------*/
FoamFile
{
    format      ascii;
    class       volVectorField;
    location    "300";
    object      U;
}
// * * * * * * * * * * * * * * * * * * * * * * * * * * * * * * * * * * * * * //

dimensions      [0 1 -1 0 0 0 0];

internalField   nonuniform List<vector> 
96890
(
(1.11881 -0.150541 2.63219e-23)
(3.62531 -0.488941 -9.3007e-23)
(6.62215 -0.894645 9.38992e-23)
(9.73034 -1.31248 1.64968e-22)
(12.3434 -1.66353 -5.40706e-19)
(14.4101 -1.94068 4.24299e-19)
(16.1038 -2.16598 3.46681e-19)
(17.5544 -2.35789 -2.94747e-19)
(18.8453 -2.52749 4.93561e-22)
(20.028 -2.68103 2.31138e-19)
(21.1356 -2.82323 -2.11098e-19)
(22.19 -2.95678 1.94101e-19)
(23.2075 -3.08364 -1.75759e-19)
(24.2011 -3.2048 -1.6422e-19)
(25.1795 -3.32162 1.51798e-19)
(26.1468 -3.43365 1.33976e-19)
(27.1027 -3.54081 -1.26881e-19)
(28.0471 -3.64208 0)
(28.9731 -3.73643 0)
(29.861 -3.82064 -9.0373e-20)
(30.6908 -3.89051 6.49646e-20)
(31.4788 -3.95732 -8.05547e-21)
(32.4014 -3.99718 3.01205e-20)
(1.83377 -0.0649018 2.64565e-19)
(5.87472 -0.207658 -4.32109e-19)
(10.4496 -0.369039 4.1366e-19)
(14.56 -0.51377 7.57544e-23)
(17.6633 -0.622698 -2.42013e-19)
(20.0416 -0.705856 0)
(21.9678 -0.772855 0)
(23.6135 -0.829654 -1.26272e-22)
(25.0769 -0.87966 1.12296e-19)
(26.4126 -0.924752 3.80763e-22)
(27.6576 -0.966102 -9.06193e-20)
(28.8363 -1.00457 -3.18525e-22)
(29.9666 -1.04057 7.45563e-20)
(31.0607 -1.07439 -6.76926e-20)
(32.1253 -1.10609 -2.64814e-24)
(33.1585 -1.13534 0)
(34.1434 -1.16141 -1.55381e-21)
(35.0438 -1.183 1.33108e-21)
(35.8207 -1.19868 4.49983e-21)
(36.4824 -1.20776 3.07188e-20)
(37.0715 -1.21114 -3.39919e-20)
(37.6431 -1.20957 6.33705e-21)
(38.2849 -1.20902 0)
(1.84891 -0.0642363 -5.30817e-19)
(5.91988 -0.205542 1.14422e-24)
(10.5183 -0.364784 4.13745e-19)
(14.6335 -0.506903 -3.24118e-19)
(17.7317 -0.613553 4.82446e-19)
(20.106 -0.694949 -3.73301e-19)
(22.0299 -0.760439 6.73543e-24)
(23.6747 -0.815968 7.47839e-24)
(25.1368 -0.864841 8.42473e-24)
(26.4724 -0.908927 1.98769e-19)
(27.7178 -0.949356 -1.78095e-19)
(28.8977 -0.98691 1.48789e-23)
(30.0296 -1.02198 1.48157e-19)
(31.1256 -1.05483 -6.82748e-20)
(32.1915 -1.08543 1.92965e-21)
(33.2249 -1.11351 5.56722e-20)
(34.2082 -1.13836 1.50305e-21)
(35.1054 -1.15893 -3.60186e-23)
(35.8808 -1.17371 -3.79307e-20)
(36.5442 -1.18207 0)
(37.1333 -1.18452 3.39747e-21)
(37.7069 -1.18255 -2.56915e-20)
(38.3471 -1.17987 2.50809e-20)
(0.952089 -0.13278 7.82006e-23)
(3.06657 -0.429457 -1.18468e-18)
(5.59856 -0.786045 1.27589e-18)
(8.3057 -1.16927 0)
(10.6458 -1.50192 -4.35133e-22)
(12.497 -1.76616 7.02005e-19)
(14.0181 -1.98403 -5.70469e-19)
(15.3351 -2.17323 -4.83638e-19)
(16.5233 -2.34275 8.49773e-19)
(17.6292 -2.49881 -3.8187e-19)
(18.6816 -2.64522 0)
(19.7008 -2.78342 -1.23449e-21)
(20.7016 -2.91502 -2.95241e-19)
(21.6953 -3.03774 2.80284e-19)
(22.6854 -3.15667 -4.14064e-21)
(23.6772 -3.26157 -3.78406e-21)
(24.6674 -3.35211 1.32735e-20)
(25.6431 -3.42658 0)
(26.6055 -3.48198 0)
(27.546 -3.51615 9.44498e-21)
(28.4451 -3.52535 0)
(29.3196 -3.50896 1.36094e-20)
(30.3362 -3.51365 -2.42349e-20)
(0.012257 -0.00146075 0)
(0.0188152 -0.00483283 0)
(0.039987 -0.00905743 0)
(0.0800988 -0.0139078 0)
(0.17665 -0.0178002 0)
(0.279399 -0.0192369 0)
(0.444276 -0.018388 0)
(0.640551 -0.0161538 0)
(0.882401 -0.0134889 0)
(1.19701 -0.0107569 0)
(1.54952 -0.00923174 0)
(1.97695 -0.00862085 0)
(2.48115 -0.00937715 0)
(3.05695 -0.0111003 0)
(3.71561 -0.0140935 0)
(4.46606 -0.0189355 0)
(5.29368 -0.0267344 0)
(6.1909 -0.0369675 0)
(7.16062 -0.048553 0)
(8.20151 -0.0589676 0)
(9.34275 -0.0739411 0)
(10.4883 -0.0825239 0)
(12.0437 -0.114431 0)
(0.93392 -0.129396 -8.10168e-23)
(3.04924 -0.422973 1.09813e-18)
(5.62666 -0.77913 7.52007e-24)
(8.41486 -1.16365 -1.06353e-18)
(10.8445 -1.49859 -3.99771e-22)
(12.7892 -1.76455 0)
(14.395 -1.98242 5.29985e-22)
(15.7839 -2.16873 0)
(17.0319 -2.33409 7.5198e-22)
(18.1861 -2.48428 -6.7269e-22)
(19.2766 -2.62398 0)
(20.3246 -2.75482 -2.93836e-19)
(21.3447 -2.87889 2.69374e-19)
(22.3473 -2.99691 -3.88205e-21)
(23.339 -3.10905 0)
(24.3234 -3.21481 2.07319e-19)
(25.3017 -3.31372 -1.93364e-19)
(26.2757 -3.40435 5.12812e-21)
(27.2399 -3.48508 4.39571e-22)
(28.175 -3.55102 -3.87881e-22)
(29.0585 -3.59892 1.43886e-20)
(29.9082 -3.62675 1.11319e-19)
(30.8991 -3.66134 -8.92048e-20)
(0.9271 -0.12888 -3.14512e-24)
(3.01934 -0.420818 0)
(5.56113 -0.774684 1.24234e-18)
(8.30979 -1.15721 -1.12101e-18)
(10.707 -1.48974 -8.8107e-19)
(12.6233 -1.75428 6.86843e-19)
(14.2087 -1.97166 5.57545e-19)
(15.5833 -2.15747 5.87993e-23)
(16.8208 -2.32273 -4.14052e-19)
(17.9682 -2.47271 7.347e-22)
(19.0545 -2.61144 3.36813e-19)
(20.099 -2.74116 -3.07493e-19)
(21.1158 -2.86345 0)
(22.1146 -2.97882 2.61848e-19)
(23.1015 -3.08808 1.80732e-22)
(24.0809 -3.19075 -2.18834e-19)
(25.0543 -3.28734 -2.67388e-22)
(26.0226 -3.3751 -1.76475e-19)
(26.9819 -3.4523 1.46282e-19)
(27.9158 -3.5129 1.44474e-19)
(28.8012 -3.55379 -1.44814e-20)
(29.6568 -3.57679 -1.36274e-20)
(30.656 -3.60679 -7.0219e-20)
(1.07788 -0.146806 1.2236e-22)
(3.48943 -0.475621 -2.06461e-22)
(6.37907 -0.868562 2.19234e-22)
(9.4089 -1.28022 0)
(11.9741 -1.62761 3.09996e-22)
(14.0042 -1.90154 2.42849e-22)
(15.6697 -2.12534 0)
(17.1003 -2.31582 3.23681e-22)
(18.377 -2.48451 0)
(19.5494 -2.6375 0)
(20.6493 -2.77947 -9.23602e-22)
(21.6995 -2.91287 -2.19391e-19)
(22.716 -3.03954 2.03296e-19)
(23.7096 -3.16084 1.88433e-19)
(24.6881 -3.27731 -1.71243e-19)
(25.6564 -3.38909 -2.38635e-21)
(26.6153 -3.49559 -4.31124e-21)
(27.5666 -3.59654 -1.2604e-19)
(28.5051 -3.69026 1.04539e-19)
(29.4089 -3.77388 -1.03284e-19)
(30.2548 -3.84168 8.45928e-20)
(31.0657 -3.90017 3.85254e-22)
(32.0295 -3.97181 0)
(1.05816 -0.144452 -1.27619e-22)
(3.42905 -0.468476 -4.54327e-24)
(6.27594 -0.856496 4.83297e-24)
(9.27388 -1.26456 -2.07495e-22)
(11.823 -1.6105 -3.11507e-22)
(13.8414 -1.88389 -2.44003e-22)
(15.5005 -2.10622 0)
(16.9253 -2.29632 -3.53167e-22)
(18.1977 -2.46435 -3.10395e-19)
(19.3674 -2.61701 2.77428e-19)
(20.4659 -2.75839 0)
(21.5154 -2.89116 -8.8503e-22)
(22.5317 -3.01729 0)
(23.5257 -3.13802 -1.49728e-21)
(24.5053 -3.25376 0)
(25.4748 -3.36452 2.60406e-21)
(26.4349 -3.47002 -4.70428e-21)
(27.3878 -3.56961 4.21106e-21)
(28.3294 -3.66183 -7.44109e-21)
(29.2376 -3.74328 -9.53291e-20)
(30.0882 -3.80898 1.65506e-19)
(30.9039 -3.8625 -7.81713e-20)
(31.8732 -3.92816 1.80792e-20)
(1.0378 -0.142117 1.33163e-22)
(3.36641 -0.461447 1.10068e-22)
(6.16836 -0.844525 -1.17286e-22)
(9.13171 -1.24913 4.25894e-22)
(11.6613 -1.59344 -3.4063e-22)
(13.667 -1.86572 0)
(15.3181 -2.08729 0)
(16.7361 -2.27715 3.54014e-22)
(18.0038 -2.44426 -3.24418e-19)
(19.1707 -2.59659 2.90592e-19)
(20.2678 -2.73749 0)
(21.3169 -2.86997 -9.65766e-22)
(22.3333 -2.99569 0)
(23.3287 -3.11568 -1.63439e-21)
(24.3098 -3.23087 -1.87653e-19)
(25.281 -3.34081 1.68172e-19)
(26.2434 -3.44536 1.59038e-19)
(27.1991 -3.54402 -2.8054e-19)
(28.1443 -3.63529 1.29543e-19)
(29.0576 -3.71578 0)
(29.9146 -3.7815 1.13429e-20)
(30.7391 -3.83638 -8.1622e-20)
(31.7136 -3.91007 3.716e-20)
(1.01494 -0.139441 -1.38987e-22)
(3.29687 -0.453255 0)
(6.05027 -0.830542 0)
(8.97607 -1.23098 -9.14386e-19)
(11.485 -1.5731 7.1672e-19)
(13.4772 -1.8438 0)
(15.1174 -2.06447 0)
(16.5293 -2.25331 0)
(17.7932 -2.4197 0)
(18.9573 -2.57137 5.8142e-22)
(20.053 -2.71155 1.1029e-21)
(21.1019 -2.84334 1.97922e-21)
(22.1194 -2.96811 -2.32953e-19)
(23.1163 -3.08716 2.15919e-19)
(24.0997 -3.20118 0)
(25.0735 -3.30951 1.78792e-19)
(26.0389 -3.41221 -1.61581e-19)
(26.9983 -3.50861 -4.62122e-21)
(27.9479 -3.59699 0)
(28.8669 -3.67366 -1.11267e-19)
(29.7316 -3.73412 1.89245e-22)
(30.5666 -3.77821 8.61046e-20)
(31.5459 -3.84216 -5.75412e-20)
(0.988717 -0.136117 7.09783e-23)
(3.21719 -0.443441 -1.00473e-18)
(5.91544 -0.814174 -9.59038e-24)
(8.79952 -1.20932 9.6004e-19)
(11.2834 -1.54956 -7.5319e-19)
(13.2622 -1.81872 5.88076e-19)
(14.8926 -2.03822 0)
(16.2984 -2.22605 0)
(17.5583 -2.39217 7.11038e-22)
(18.7197 -2.54313 6.36476e-22)
(19.8141 -2.68272 -1.10632e-21)
(20.863 -2.81392 -2.66324e-19)
(21.8818 -2.93793 2.44113e-19)
(22.8806 -3.05643 -2.24691e-19)
(23.8667 -3.16925 2.09221e-19)
(24.8435 -3.27648 0)
(25.8128 -3.37771 -5.42143e-21)
(26.7767 -3.47227 -1.47123e-19)
(27.7306 -3.55859 1.42619e-19)
(28.6546 -3.63282 -1.16789e-19)
(29.5252 -3.69125 1.01628e-19)
(30.3632 -3.73267 -2.25197e-20)
(31.3461 -3.79401 1.015e-19)
(0.964785 -0.133392 0)
(3.14282 -0.43479 5.5921e-24)
(5.78617 -0.79921 0)
(8.62636 -1.19041 0)
(11.085 -1.52747 -7.92948e-19)
(13.0476 -1.79436 6.18442e-19)
(14.665 -2.0132 0)
(16.0616 -2.19951 0)
(17.3147 -2.36493 -1.45879e-21)
(18.4724 -2.51488 -3.34235e-19)
(19.5651 -2.65379 3.03552e-19)
(20.6134 -2.78423 -2.7719e-19)
(21.6328 -2.90735 2.56112e-19)
(22.6333 -3.0249 2.37699e-19)
(23.6217 -3.13646 -2.195e-19)
(24.6015 -3.24237 -1.97037e-19)
(25.5746 -3.34189 1.83554e-19)
(26.5428 -3.4346 -1.64517e-19)
(27.5009 -3.51852 4.14892e-22)
(28.43 -3.58959 1.14884e-19)
(29.3069 -3.6441 1.06602e-19)
(30.1525 -3.67936 -7.92484e-22)
(31.1393 -3.73076 -1.0554e-19)
(1.09755 -0.149045 -4.80707e-19)
(3.54837 -0.482206 2.50604e-24)
(6.47773 -0.879524 8.582e-19)
(9.53333 -1.2932 7.57165e-19)
(12.1117 -1.64162 -1.18508e-18)
(14.153 -1.91685 4.64334e-19)
(15.8264 -2.14116 0)
(17.2613 -2.33205 3.22409e-19)
(18.5414 -2.501 2.29713e-23)
(19.7166 -2.65468 -5.06818e-19)
(20.8191 -2.79701 4.61332e-19)
(21.8708 -2.93071 -8.09049e-22)
(22.8873 -3.05787 -1.93974e-19)
(23.8805 -3.17955 1.36712e-21)
(24.8587 -3.29652 0)
(25.8262 -3.40905 1.53622e-19)
(26.784 -3.51628 -1.26168e-19)
(27.7333 -3.61816 1.2054e-19)
(28.6681 -3.71296 -2.06154e-19)
(29.5669 -3.79791 9.2848e-20)
(30.4075 -3.86634 9.93619e-21)
(31.2105 -3.92845 9.19317e-21)
(32.1711 -3.99621 -6.48187e-20)
(1.09129 -0.120975 0)
(3.52048 -0.427303 -8.59719e-25)
(6.3109 -0.768015 -1.22249e-20)
(9.10404 -1.12626 -5.83799e-23)
(11.4423 -1.46012 1.83431e-20)
(13.2515 -1.74069 0)
(14.7029 -1.9739 -2.04677e-20)
(15.9372 -2.17656 2.22825e-20)
(17.0401 -2.35854 -4.85395e-23)
(18.0645 -2.52778 3.03976e-20)
(19.0463 -2.69256 -3.83468e-20)
(19.9965 -2.85329 -1.79706e-22)
(20.9192 -3.02033 9.16789e-20)
(21.8149 -3.20256 -2.88517e-19)
(22.7166 -3.26477 3.17526e-21)
(23.5588 -3.37071 1.72175e-19)
(24.3948 -3.45124 -2.28261e-19)
(25.3106 -3.48645 2.06517e-19)
(26.2396 -3.50051 -1.81768e-19)
(27.166 -3.48142 -1.6939e-19)
(28.0694 -3.44458 1.39527e-19)
(28.9645 -3.38798 0)
(30.0172 -3.32105 0)
(1.11087 -0.150252 5.75229e-23)
(3.59039 -0.486063 1.8992e-22)
(6.55134 -0.885925 8.23073e-19)
(9.63085 -1.30231 -7.24615e-19)
(12.225 -1.65203 -2.82444e-22)
(14.2797 -1.92751 0)
(15.9634 -2.15271 0)
(17.4055 -2.34432 -3.07347e-22)
(18.6912 -2.51373 2.70658e-19)
(19.8709 -2.66744 -2.42006e-19)
(20.9761 -2.81004 -2.20336e-19)
(22.0293 -2.94399 2.01067e-19)
(23.0466 -3.07137 0)
(24.04 -3.19318 -1.36148e-21)
(25.0182 -3.31057 -2.39515e-21)
(25.9856 -3.4235 -9.21597e-23)
(26.9425 -3.53143 1.28871e-19)
(27.8893 -3.6339 -1.15467e-19)
(28.8195 -3.72975 0)
(29.7125 -3.8158 -8.36681e-20)
(30.5473 -3.8863 6.77792e-20)
(31.3439 -3.95608 0)
(32.2863 -4.0233 -7.83432e-20)
(1.25407 -0.164613 -5.64585e-19)
(4.04063 -0.529674 4.75312e-19)
(7.33397 -0.960923 -4.95903e-19)
(10.6592 -1.39658 4.28749e-19)
(13.3928 -1.75397 0)
(15.5337 -2.03315 -2.61902e-19)
(17.2763 -2.2598 2.14544e-19)
(18.76 -2.45224 3.57605e-22)
(20.0767 -2.62195 0)
(21.2779 -2.77621 1.44818e-19)
(22.3975 -2.91887 2.37748e-23)
(23.4598 -3.05319 -2.41978e-19)
(24.4813 -3.18118 2.21677e-19)
(25.4743 -3.30436 -1.01665e-19)
(26.4476 -3.4234 -9.54912e-20)
(27.406 -3.539 -3.00765e-23)
(28.3494 -3.65058 7.717e-20)
(29.2729 -3.75738 6.45672e-20)
(30.1724 -3.8583 1.50581e-22)
(31.0373 -3.95193 6.63814e-21)
(31.8511 -4.03521 -9.30741e-20)
(32.6337 -4.09834 3.60654e-20)
(33.5248 -4.22234 -9.37757e-21)
(1.13742 -0.154071 4.2123e-19)
(3.68293 -0.496215 -8.50114e-23)
(6.71999 -0.903531 -9.35977e-23)
(9.85393 -1.32514 -6.57034e-19)
(12.4843 -1.67676 -1.29121e-23)
(14.5613 -1.95435 4.02353e-19)
(16.2606 -2.18008 3.28908e-19)
(17.7142 -2.37171 -2.79397e-19)
(19.0075 -2.54097 -2.12544e-23)
(20.1914 -2.69464 4.20163e-22)
(21.2995 -2.83648 -1.98689e-19)
(22.3544 -2.96993 -7.59265e-22)
(23.3723 -3.09665 -8.76799e-23)
(24.3664 -3.2177 1.2065e-21)
(25.3449 -3.33439 2.14169e-21)
(26.312 -3.44615 1.27375e-19)
(27.2673 -3.55286 3.57845e-21)
(28.21 -3.65345 0)
(29.1336 -3.74661 0)
(30.0196 -3.82866 8.05286e-20)
(30.8506 -3.89557 -6.12033e-20)
(31.6469 -3.95042 8.02655e-21)
(32.5667 -3.97557 -2.83765e-20)
(1.15897 -0.155421 -4.83352e-23)
(3.73991 -0.501989 3.58656e-24)
(6.80971 -0.913176 0)
(9.96988 -1.33658 0)
(12.6137 -1.68933 -4.89621e-19)
(14.7006 -1.96731 3.83621e-19)
(16.4053 -2.19325 -3.13095e-19)
(17.8605 -2.38509 2.66481e-19)
(19.1552 -2.5543 -4.66429e-22)
(20.3402 -2.70805 -2.09883e-19)
(21.4489 -2.85035 1.89534e-19)
(22.5044 -2.98423 6.66516e-22)
(23.5233 -3.11144 -1.28143e-21)
(24.5181 -3.23346 -1.1304e-21)
(25.4969 -3.3511 -2.16703e-21)
(26.4635 -3.46422 -1.19918e-19)
(27.4172 -3.57258 1.08284e-19)
(28.3572 -3.6754 -1.00097e-19)
(29.2771 -3.77172 8.84172e-20)
(30.1597 -3.8583 -4.72476e-21)
(30.9886 -3.93251 5.91556e-20)
(31.7866 -3.99626 -1.09293e-22)
(32.7062 -4.06559 -5.35278e-20)
(1.17271 -0.156889 4.83361e-23)
(3.78379 -0.506486 3.54532e-24)
(6.88636 -0.920828 6.83518e-19)
(10.0712 -1.3464 -5.9715e-19)
(12.7293 -1.70007 4.6615e-19)
(14.8247 -1.97853 2.43942e-23)
(16.5334 -2.2045 -2.98572e-19)
(17.9922 -2.39618 -2.53263e-22)
(19.2888 -2.5658 4.25148e-22)
(20.4757 -2.71944 -3.80981e-22)
(21.5862 -2.86194 7.24081e-22)
(22.6429 -2.9959 -6.64025e-22)
(23.6632 -3.12338 0)
(24.6589 -3.2457 1.41181e-19)
(25.6378 -3.36354 3.59595e-23)
(26.6038 -3.47697 -1.1998e-19)
(27.5558 -3.58563 0)
(28.4922 -3.68879 0)
(29.4077 -3.7855 0)
(30.286 -3.87292 4.70485e-21)
(31.1099 -3.94837 -5.61203e-20)
(31.9005 -4.01467 -6.30169e-23)
(32.8084 -4.0883 5.24336e-20)
(1.18933 -0.158701 -4.42489e-23)
(3.83445 -0.511962 3.32389e-24)
(6.97212 -0.930121 0)
(10.1812 -1.35787 0)
(12.8507 -1.71234 0)
(14.9501 -1.9906 3.39399e-22)
(16.6609 -2.21647 0)
(18.1225 -2.40837 0)
(19.4213 -2.57797 -4.23321e-22)
(20.6097 -2.73171 1.62212e-23)
(21.7212 -2.87438 6.60744e-22)
(22.7794 -3.00845 0)
(23.8007 -3.13619 1.46046e-19)
(24.7966 -3.25863 1.10136e-21)
(25.7751 -3.37681 -1.23579e-19)
(26.7403 -3.49056 0)
(27.6907 -3.59958 0)
(28.6248 -3.70308 0)
(29.5376 -3.79996 4.91645e-21)
(30.4138 -3.88767 0)
(31.2364 -3.96225 0)
(32.0285 -4.02512 -4.74869e-20)
(32.9342 -4.09431 7.33968e-20)
(1.20178 -0.159567 3.54072e-19)
(3.87862 -0.515875 7.43152e-23)
(7.04813 -0.937858 0)
(10.2791 -1.36646 0)
(12.9563 -1.72165 0)
(15.0586 -1.9996 -3.23687e-22)
(16.7735 -2.22587 2.70727e-19)
(18.2377 -2.4179 -2.30216e-19)
(19.5392 -2.58768 0)
(20.73 -2.74197 -1.81223e-19)
(21.8437 -2.88488 3.30413e-19)
(22.9033 -3.01955 -1.51669e-19)
(23.9251 -3.14774 0)
(24.9212 -3.27092 -9.87296e-22)
(25.899 -3.38985 1.81347e-21)
(26.863 -3.50473 -1.09533e-19)
(27.812 -3.61498 1.97697e-19)
(28.7436 -3.72013 -8.96777e-20)
(29.6531 -3.81899 -4.9059e-21)
(30.5267 -3.90953 -7.12967e-20)
(31.3468 -3.98685 5.87118e-20)
(32.1352 -4.05775 -6.63523e-21)
(33.0439 -4.14559 -1.19223e-20)
(1.21175 -0.161279 6.79959e-19)
(3.91124 -0.518788 -5.72247e-19)
(7.10348 -0.941718 5.98443e-19)
(10.3534 -1.3724 -1.0386e-18)
(13.0379 -1.72763 8.64497e-23)
(15.1479 -2.00582 -8.4562e-24)
(16.8686 -2.23225 2.59044e-19)
(18.337 -2.42439 -2.20008e-22)
(19.6427 -2.59443 1.94021e-19)
(20.8369 -2.74881 -1.74144e-19)
(21.9533 -2.89195 1.57903e-19)
(23.0146 -3.02669 3.60435e-23)
(24.0374 -3.15489 -1.33154e-19)
(25.0334 -3.27822 4.04908e-23)
(26.0106 -3.39718 -1.81124e-21)
(26.9731 -3.51236 1.03659e-19)
(27.9206 -3.62302 -5.7609e-21)
(28.8493 -3.7288 5.29591e-21)
(29.7548 -3.82856 -1.43019e-19)
(30.624 -3.92002 4.98739e-23)
(31.4391 -3.99984 -9.17758e-23)
(32.2175 -4.07902 5.02193e-20)
(33.1133 -4.15999 -1.12127e-20)
(1.22364 -0.161872 -3.26079e-19)
(3.94157 -0.521884 -3.10437e-24)
(7.15288 -0.946206 1.39416e-22)
(10.4204 -1.37709 -1.18038e-22)
(13.1168 -1.73322 3.8564e-19)
(15.2369 -2.01172 1.66354e-22)
(16.9651 -2.23844 -2.47322e-19)
(18.4394 -2.43065 0)
(19.7491 -2.60042 1.85682e-19)
(20.9467 -2.7545 -1.66673e-19)
(22.0652 -2.89732 -1.51497e-19)
(23.1277 -3.03149 1.39078e-19)
(24.151 -3.15928 -4.64596e-23)
(25.1468 -3.28184 4.28313e-23)
(26.1232 -3.40009 -1.06891e-19)
(27.0847 -3.51437 1.00433e-19)
(28.0307 -3.62415 2.84919e-21)
(28.9573 -3.72858 -1.15999e-22)
(29.8598 -3.82682 -4.49465e-21)
(30.7262 -3.91588 -6.14785e-20)
(31.5385 -3.99489 5.38116e-20)
(32.3117 -4.06668 -4.84103e-20)
(33.1903 -4.12009 6.57941e-20)
(1.23421 -0.162669 -3.10441e-19)
(3.9748 -0.524148 5.20556e-19)
(7.2103 -0.951062 -6.79429e-23)
(10.4952 -1.38353 5.54908e-24)
(13.2085 -1.73998 -9.17134e-23)
(15.3398 -2.01965 1.37162e-22)
(17.0761 -2.24615 2.35207e-19)
(18.5545 -2.43843 2.13316e-22)
(19.8668 -2.60788 -1.76467e-19)
(21.0661 -2.76179 1.5849e-19)
(22.1854 -2.90408 3.19414e-23)
(23.2486 -3.03781 -2.64917e-19)
(24.2716 -3.16516 -1.01515e-21)
(25.2665 -3.28712 1.13169e-19)
(26.2419 -3.40487 -1.65096e-21)
(27.2023 -3.51845 -1.43211e-21)
(28.1471 -3.62766 0)
(29.0726 -3.73119 -4.72483e-21)
(29.9744 -3.82807 4.06898e-21)
(30.8407 -3.91555 1.89266e-22)
(31.6545 -3.99355 0)
(32.4339 -4.05306 -4.55118e-20)
(33.3089 -4.10535 -2.04365e-20)
(1.2454 -0.163659 -2.95306e-19)
(4.01127 -0.527287 4.96246e-19)
(7.28014 -0.95693 6.18415e-23)
(10.5844 -1.39093 1.12025e-22)
(13.3097 -1.74761 -3.48648e-19)
(15.4463 -2.02724 2.73522e-19)
(17.1856 -2.25369 0)
(18.6665 -2.44594 -3.73242e-22)
(19.9811 -2.61537 0)
(21.1812 -2.76938 -1.50879e-19)
(22.3005 -2.91169 1.37094e-19)
(23.3633 -3.04559 1.26391e-19)
(24.3855 -3.17317 2.55509e-23)
(25.3794 -3.29555 -1.07675e-19)
(26.3536 -3.41386 0)
(27.3132 -3.52823 1.42955e-21)
(28.2573 -3.63831 0)
(29.1819 -3.74302 4.50101e-21)
(30.0834 -3.8412 5.54802e-20)
(30.9501 -3.93109 -5.53518e-20)
(31.7657 -4.01174 4.84161e-20)
(32.551 -4.06849 5.10744e-21)
(33.4334 -4.15693 -5.73967e-20)
(1.39995 -0.172481 -5.42388e-20)
(4.49728 -0.553494 0)
(8.11602 -0.998143 -9.30071e-20)
(11.6677 -1.43445 7.88818e-20)
(14.5247 -1.78557 0)
(16.7469 -2.05807 -2.15271e-23)
(18.5442 -2.27802 -3.9411e-20)
(20.0703 -2.46449 3.37005e-20)
(21.4201 -2.62889 -2.97994e-20)
(22.6479 -2.77791 2.68194e-20)
(23.7903 -2.91599 -6.01754e-23)
(24.8704 -3.04591 -2.25898e-20)
(25.9062 -3.16965 2.94493e-22)
(26.9106 -3.28885 1.94224e-20)
(27.8932 -3.40447 -1.78034e-20)
(28.8598 -3.51694 -5.56356e-22)
(29.81 -3.62613 1.51737e-20)
(30.7332 -3.73032 0)
(31.6211 -3.82822 -1.23157e-20)
(32.4706 -3.91882 9.51032e-21)
(33.2753 -4.00102 -7.80116e-21)
(34.0525 -4.07339 1.70466e-20)
(34.9187 -4.14871 -5.20105e-21)
(1.40896 -0.172877 0)
(4.52091 -0.554207 0)
(8.14951 -0.999348 0)
(11.708 -1.43542 6.60519e-20)
(14.5691 -1.7856 -5.10729e-20)
(16.794 -2.05776 4.01472e-20)
(18.5919 -2.27732 -3.29417e-20)
(20.1195 -2.46339 0)
(21.4703 -2.6276 2.66817e-23)
(22.6992 -2.77655 -2.25025e-20)
(23.8419 -2.91446 2.0496e-20)
(24.9222 -3.04428 0)
(25.9581 -3.16811 -1.7511e-20)
(26.9631 -3.28747 -5.35302e-23)
(27.9463 -3.4033 -3.32129e-23)
(28.9136 -3.51611 3.12915e-24)
(29.8646 -3.62571 1.22859e-20)
(30.788 -3.73051 -3.11662e-22)
(31.6763 -3.82929 1.22041e-21)
(32.5268 -3.92146 0)
(33.3332 -4.00582 8.62447e-22)
(34.1148 -4.08286 -9.23249e-22)
(34.9813 -4.16872 0)
(1.26202 -0.165139 0)
(4.06688 -0.531553 -5.67952e-23)
(7.38046 -0.964422 2.64482e-24)
(10.7237 -1.40068 4.56652e-24)
(13.4635 -1.75803 -3.18664e-19)
(15.6085 -2.03714 5.00579e-19)
(17.3548 -2.26365 -2.05011e-19)
(18.841 -2.45602 1.74702e-19)
(20.159 -2.62565 1.94175e-23)
(21.3613 -2.77969 2.2412e-23)
(22.4815 -2.92241 -1.25743e-19)
(23.5437 -3.05675 4.60741e-22)
(24.5651 -3.18476 8.49132e-22)
(25.5578 -3.30805 -9.80643e-20)
(26.5305 -3.42743 9.14009e-20)
(27.4883 -3.54339 -1.24986e-21)
(28.4309 -3.65559 2.25334e-21)
(29.3529 -3.76314 6.61234e-20)
(30.2496 -3.86522 -5.45796e-20)
(31.1105 -3.96037 -3.25669e-21)
(31.9192 -4.04612 0)
(32.6919 -4.12731 -4.52495e-20)
(33.5665 -4.26374 4.53855e-20)
(1.27462 -0.166477 -1.5263e-24)
(4.10263 -0.535209 4.33663e-19)
(7.43608 -0.969252 -4.50939e-19)
(10.7889 -1.40557 3.88964e-19)
(13.5367 -1.76272 0)
(15.6871 -2.04216 -5.5717e-24)
(17.4363 -2.26833 0)
(18.9245 -2.46038 0)
(20.2432 -2.62974 0)
(21.4465 -2.78341 0)
(22.5677 -2.92583 -1.19433e-19)
(23.6303 -3.05972 1.0919e-19)
(24.6516 -3.18724 0)
(25.6442 -3.30989 -9.23862e-20)
(26.6167 -3.42847 8.54136e-20)
(27.5743 -3.54359 -7.77787e-20)
(28.5171 -3.65455 -1.4045e-22)
(29.439 -3.7605 6.45432e-20)
(30.3352 -3.86 -5.86448e-20)
(31.1956 -3.95105 -1.4906e-23)
(32.0048 -4.03036 4.22746e-20)
(32.7802 -4.10054 4.84169e-21)
(33.648 -4.16175 -8.75858e-21)
(1.28781 -0.16744 4.94294e-19)
(4.13847 -0.538355 5.25522e-24)
(7.49098 -0.973906 -4.29558e-19)
(10.8532 -1.41102 1.80627e-22)
(13.6071 -1.76798 0)
(15.7634 -2.04707 -2.26196e-19)
(17.5161 -2.2736 -1.64108e-23)
(19.0057 -2.46542 1.57796e-19)
(20.3254 -2.63459 1.38994e-19)
(21.5292 -2.78815 -1.24864e-19)
(22.6509 -2.93044 4.33102e-22)
(23.7138 -3.06432 4.17542e-22)
(24.7353 -3.19187 0)
(25.7278 -3.31467 -3.35339e-23)
(26.7004 -3.43355 1.241e-21)
(27.658 -3.54909 7.54363e-20)
(28.6007 -3.6607 -6.90396e-20)
(29.5223 -3.76769 0)
(30.4179 -3.86878 1.5574e-22)
(31.2776 -3.96247 -2.82361e-21)
(32.0867 -4.04673 0)
(32.864 -4.12379 0)
(33.7344 -4.20939 0)
(1.29098 -0.166975 0)
(4.15779 -0.538613 -3.93312e-19)
(7.53052 -0.976137 4.08098e-19)
(10.9095 -1.41305 3.5075e-19)
(13.6697 -1.77039 -2.7286e-19)
(15.831 -2.04926 -1.07395e-22)
(17.5878 -2.27541 0)
(19.0799 -2.46703 1.4985e-19)
(20.401 -2.63593 -1.31724e-19)
(21.6059 -2.78924 1.18388e-19)
(22.7285 -2.93138 -1.08232e-19)
(23.7921 -3.06495 9.86466e-20)
(24.8142 -3.19235 -9.12637e-20)
(25.8073 -3.31481 -3.34602e-23)
(26.78 -3.43345 -1.23873e-21)
(27.7374 -3.54859 6.939e-20)
(28.6799 -3.65987 -6.15472e-20)
(29.601 -3.76635 0)
(30.4955 -3.86681 3.21235e-21)
(31.3534 -3.95947 -4.38234e-20)
(32.1604 -4.04254 7.69795e-20)
(32.9356 -4.11679 8.37659e-23)
(33.8017 -4.19545 -3.09566e-20)
(1.29887 -0.168292 2.22349e-19)
(4.18423 -0.540707 3.73752e-19)
(7.57689 -0.978915 -3.8715e-19)
(10.9679 -1.41654 8.33659e-23)
(13.7364 -1.77312 2.58583e-19)
(15.9014 -2.05192 -2.03063e-19)
(17.6589 -2.27759 1.66355e-19)
(19.153 -2.46874 -1.41895e-19)
(20.4759 -2.63758 0)
(21.6825 -2.7907 0)
(22.8058 -2.93255 0)
(23.8701 -3.06603 9.42718e-20)
(24.8926 -3.19326 3.54586e-23)
(25.8859 -3.31558 -1.6026e-19)
(26.8591 -3.43418 1.47714e-19)
(27.8168 -3.54929 -1.32574e-19)
(28.7594 -3.6606 5.64609e-20)
(29.6804 -3.76708 1.63735e-21)
(30.5747 -3.86764 0)
(31.4323 -3.96044 2.67426e-21)
(32.239 -4.04385 0)
(33.016 -4.11757 0)
(33.8824 -4.20204 -2.22846e-20)
(1.31018 -0.168806 -4.22982e-19)
(4.21048 -0.542519 3.54281e-19)
(7.61723 -0.980812 3.6679e-19)
(11.0163 -1.41827 -3.1515e-19)
(13.7921 -1.77519 -2.44795e-19)
(15.963 -2.05379 1.92292e-19)
(17.7236 -2.27931 0)
(19.2203 -2.47043 0)
(20.5456 -2.63911 0)
(21.7532 -2.79209 1.0632e-19)
(22.8779 -2.93377 -9.64651e-20)
(23.9434 -3.0672 -3.38547e-22)
(24.9663 -3.19432 8.20441e-20)
(25.9601 -3.31667 -1.51232e-19)
(26.9335 -3.43524 6.93761e-20)
(27.8914 -3.55043 -6.33316e-20)
(28.8342 -3.66193 5.89182e-20)
(29.7554 -3.7686 -5.2617e-20)
(30.6495 -3.86938 -4.29455e-23)
(31.5067 -3.96253 3.94613e-20)
(32.3129 -4.04582 0)
(33.09 -4.11903 2.69128e-20)
(33.9627 -4.20546 -7.2693e-21)
(1.31752 -0.169397 -1.2575e-23)
(4.23401 -0.54417 3.36058e-19)
(7.65344 -0.983275 -6.94941e-19)
(11.0654 -1.42116 5.96876e-19)
(13.8494 -1.77828 -4.63393e-19)
(16.0224 -2.05647 1.81935e-19)
(17.7862 -2.2817 -1.41638e-22)
(19.285 -2.47282 -1.27204e-19)
(20.6119 -2.64124 -1.95173e-23)
(21.8205 -2.79411 -2.33275e-23)
(22.9463 -2.93569 9.13343e-20)
(24.0129 -3.06903 3.38062e-22)
(25.0368 -3.1961 -7.77345e-20)
(26.031 -3.31835 -4.22995e-23)
(27.0043 -3.43692 -1.03682e-22)
(27.9623 -3.5521 -5.51915e-23)
(28.9052 -3.66383 -6.19361e-23)
(29.8263 -3.7709 4.83195e-20)
(30.7197 -3.87219 4.28026e-20)
(31.5757 -3.96625 -7.50331e-20)
(32.3803 -4.05091 3.28714e-20)
(33.1551 -4.12855 3.74687e-21)
(34.0284 -4.22516 6.44996e-21)
(1.3283 -0.170251 -2.25633e-23)
(4.26314 -0.546471 0)
(7.69339 -0.985407 -3.2811e-19)
(11.1161 -1.42297 5.62876e-19)
(13.9039 -1.77976 -4.37045e-19)
(16.0798 -2.05742 1.7165e-19)
(17.8469 -2.28249 1.41308e-22)
(19.3485 -2.47326 -1.20105e-19)
(20.6771 -2.64142 -1.91872e-23)
(21.8873 -2.79401 9.50309e-20)
(23.0139 -2.93531 0)
(24.0809 -3.06837 -3.01979e-22)
(25.1052 -3.19524 0)
(26.0999 -3.31727 5.13702e-22)
(27.0734 -3.43562 -9.99405e-22)
(28.0316 -3.55063 0)
(28.9747 -3.66213 -1.55431e-21)
(29.8955 -3.76892 0)
(30.7883 -3.86985 0)
(31.6432 -3.96344 0)
(32.4463 -4.04774 -3.49584e-20)
(33.2179 -4.12466 2.43879e-20)
(34.0898 -4.20926 1.8839e-20)
(1.33901 -0.170954 2.26093e-23)
(4.29268 -0.548316 0)
(7.73508 -0.987917 0)
(11.1685 -1.42549 -6.66118e-23)
(13.9622 -1.78197 0)
(16.1409 -2.05925 0)
(17.91 -2.28379 0)
(19.4129 -2.47436 0)
(20.7429 -2.64225 9.95104e-20)
(21.9543 -2.79459 -8.94672e-20)
(23.0819 -2.93565 3.09323e-22)
(24.1494 -3.06848 5.8567e-22)
(25.174 -3.19498 0)
(26.1686 -3.31685 -5.13032e-22)
(27.1426 -3.43488 8.88866e-22)
(28.101 -3.54973 0)
(29.0441 -3.66099 -4.52323e-20)
(29.9651 -3.76751 4.30103e-20)
(30.8579 -3.86812 -2.31111e-21)
(31.7125 -3.96119 -2.02802e-21)
(32.5154 -4.04457 3.3094e-20)
(33.2896 -4.11897 -2.2672e-20)
(34.1606 -4.20485 0)
(1.34634 -0.171358 3.38851e-19)
(4.31507 -0.549468 -5.64501e-19)
(7.77306 -0.989725 5.81735e-19)
(11.2172 -1.42744 -2.49147e-19)
(14.0186 -1.78366 -1.93276e-19)
(16.1998 -2.06044 3.03628e-19)
(17.9709 -2.28463 -1.02988e-22)
(19.4755 -2.47479 1.73404e-23)
(20.8063 -2.64235 1.94803e-23)
(22.0182 -2.79444 2.30424e-23)
(23.1461 -2.93529 -7.69991e-20)
(24.2139 -3.06787 7.02377e-20)
(25.2391 -3.19431 3.59807e-23)
(26.2342 -3.31617 -5.95272e-20)
(27.2084 -3.43417 -5.20426e-23)
(28.1672 -3.54906 5.03344e-20)
(29.1107 -3.66049 -4.68486e-20)
(30.032 -3.76724 4.05812e-20)
(30.9247 -3.86823 -3.3525e-20)
(31.7787 -3.96201 -2.94929e-20)
(32.5809 -4.04639 -8.36753e-23)
(33.354 -4.12343 -8.30379e-23)
(34.2282 -4.21249 2.22602e-20)
(1.34891 -0.171081 0)
(4.32725 -0.548952 2.02722e-24)
(7.80406 -0.990647 2.73452e-19)
(11.2587 -1.42872 -2.34179e-19)
(14.0672 -1.78431 0)
(16.2529 -2.06123 1.42541e-19)
(18.0254 -2.28502 -1.16726e-19)
(19.5315 -2.47476 0)
(20.8638 -2.64217 8.79099e-20)
(22.0772 -2.79406 -1.58054e-19)
(23.2057 -2.93472 7.20267e-20)
(24.2742 -3.06719 -6.62162e-20)
(25.3002 -3.19358 6.10595e-20)
(26.2958 -3.31528 -4.54151e-22)
(27.2707 -3.43331 -5.06174e-23)
(28.2301 -3.54816 -4.7262e-20)
(29.1744 -3.65962 4.26319e-20)
(30.0962 -3.76636 -3.8092e-20)
(30.9888 -3.86724 3.36346e-20)
(31.8425 -3.96082 0)
(32.6444 -4.04451 0)
(33.4183 -4.12108 0)
(34.2928 -4.21049 0)
(1.35083 -0.171208 1.48719e-19)
(4.3385 -0.549301 2.00907e-24)
(7.83707 -0.992256 3.02764e-23)
(11.3021 -1.43123 0)
(14.1131 -1.78615 4.01177e-23)
(16.3044 -2.0628 6.72916e-23)
(18.0776 -2.28661 0)
(19.5843 -2.47594 0)
(20.9181 -2.64322 0)
(22.1326 -2.79504 0)
(23.2627 -2.93567 0)
(24.3323 -3.06803 -6.20215e-20)
(25.3587 -3.19435 -3.22504e-23)
(26.3551 -3.31597 3.61571e-22)
(27.3306 -3.43404 4.77462e-20)
(28.2908 -3.54892 0)
(29.2358 -3.66048 -1.21019e-21)
(30.1577 -3.7675 -3.57656e-20)
(31.0497 -3.86876 3.15733e-20)
(31.903 -3.96314 -2.77699e-20)
(32.704 -4.04771 -6.29242e-23)
(33.4754 -4.12692 2.58588e-21)
(34.3556 -4.21603 2.43352e-20)
(1.36081 -0.172119 1.39211e-19)
(4.36535 -0.551872 8.97375e-24)
(7.87357 -0.994229 -2.73203e-23)
(11.3473 -1.43211 -2.04207e-19)
(14.1591 -1.78725 1.58317e-19)
(16.3519 -2.06312 -1.24398e-19)
(18.1286 -2.28642 1.01869e-19)
(19.637 -2.47579 1.7264e-23)
(20.9715 -2.6427 -7.67262e-20)
(22.1869 -2.79416 0)
(23.318 -2.93461 6.31832e-20)
(24.3884 -3.06687 -1.15497e-19)
(25.4157 -3.19293 1.06791e-19)
(26.4129 -3.31453 -4.9299e-20)
(27.3891 -3.43237 4.53548e-20)
(28.35 -3.54724 -4.13714e-20)
(29.2954 -3.65867 2.33661e-21)
(30.2171 -3.76552 0)
(31.1087 -3.8667 1.78204e-21)
(31.961 -3.96107 -2.75453e-20)
(32.7611 -4.04533 -8.84475e-23)
(33.5309 -4.12562 1.76715e-20)
(34.4083 -4.21486 1.37675e-20)
(1.36381 -0.171411 7.6128e-24)
(4.3772 -0.55046 2.73722e-23)
(7.8973 -0.994267 2.6189e-23)
(11.3821 -1.43289 1.89836e-19)
(14.2021 -1.78695 -1.47112e-19)
(16.397 -2.06262 1.15622e-19)
(18.1768 -2.28573 1.10612e-22)
(19.6877 -2.47476 -8.09114e-20)
(21.0232 -2.64142 0)
(22.2395 -2.79271 6.41729e-20)
(23.372 -2.93287 8.33713e-24)
(24.4434 -3.06502 -3.91179e-22)
(25.4717 -3.19087 3.42002e-23)
(26.4696 -3.31235 -3.32085e-22)
(27.4468 -3.43004 -4.21429e-20)
(28.4083 -3.54476 -3.91032e-20)
(29.354 -3.6561 6.84112e-20)
(30.2759 -3.76279 -3.00806e-20)
(31.1673 -3.86376 -3.43879e-21)
(32.0193 -3.95769 1.56345e-21)
(32.8193 -4.04125 0)
(33.5876 -4.12174 0)
(34.467 -4.20529 4.14698e-21)
(1.36632 -0.171725 -2.16694e-23)
(4.38958 -0.551414 2.00695e-19)
(7.92771 -0.995058 -2.06478e-19)
(11.4196 -1.43269 0)
(14.2429 -1.78678 6.40041e-23)
(16.4405 -2.06221 1.06968e-19)
(18.2216 -2.28469 -8.7759e-20)
(19.7342 -2.47339 0)
(21.0722 -2.63987 0)
(22.29 -2.79097 5.95013e-20)
(23.4233 -2.93092 -1.08733e-19)
(24.4957 -3.06275 5.00976e-20)
(25.5251 -3.18855 0)
(26.5239 -3.30982 4.25803e-20)
(27.5016 -3.42743 5.63145e-23)
(28.4639 -3.54204 -7.09539e-20)
(29.4102 -3.65331 3.22862e-20)
(30.3322 -3.75999 -9.35964e-22)
(31.223 -3.86097 3.19682e-21)
(32.0744 -3.95497 0)
(32.8742 -4.03931 0)
(33.6431 -4.12136 1.7701e-20)
(34.5196 -4.19963 -2.00926e-20)
(1.37418 -0.17171 -1.11065e-19)
(4.41321 -0.552181 2.16332e-23)
(7.95564 -0.995261 0)
(11.4522 -1.43205 -1.62308e-19)
(14.2831 -1.78586 -4.60818e-23)
(16.4842 -2.06047 -6.32448e-24)
(18.2651 -2.28243 8.09104e-20)
(19.7789 -2.47051 6.92212e-20)
(21.1193 -2.63676 -1.22049e-19)