/*--------------------------------*- C++ -*----------------------------------*\
  =========                 |
  \\      /  F ield         | OpenFOAM: The Open Source CFD Toolbox
   \\    /   O peration     | Website:  https://openfoam.org
    \\  /    A nd           | Version:  10
     \\/     M anipulation  |
\*---------------------------------------------------------------------------*/
FoamFile
{
    format      ascii;
    class       volVectorField;
    location    "300";
    object      wallShearStress;
}
// * * * * * * * * * * * * * * * * * * * * * * * * * * * * * * * * * * * * * //

dimensions      [0 2 -2 0 0 0 0];

internalField   uniform (0 0 0);

boundaryField
{
    back
    {
        type            empty;
    }
    front
    {
        type            empty;
    }
    exit
    {
        type            calculated;
        value           uniform (0 0 0);
    }
    bottom
    {
        type            calculated;
        value           uniform (0 0 0);
    }
    inlet
    {
        type            calculated;
        value           uniform (0 0 0);
    }
    top
    {
        type            calculated;
        value           uniform (0 0 0);
    }
    aerofoil
    {
        type            calculated;
        value           nonuniform List<vector> 
817
(
(-1.74735 0.234676 -4.11077e-23)
(-2.86012 0.101111 -4.12644e-19)
(-2.88103 0.10013 8.27136e-19)
(-1.48276 0.207009 -1.21781e-22)
(-0.0320371 0.00231162 0)
(-1.4548 0.201392 1.26201e-22)
(-1.44415 0.200675 4.9e-24)
(-1.67868 0.228458 -1.90559e-22)
(-1.64797 0.224785 1.98749e-22)
(-1.61586 0.221064 -2.0733e-22)
(-1.58025 0.216921 2.16398e-22)
(-1.5398 0.211749 -1.10537e-22)
(-1.50252 0.207529 -7.80602e-40)
(-1.70891 0.231913 7.48456e-19)
(-1.71874 0.179334 9.18355e-41)
(-1.72923 0.233744 -8.95417e-23)
(-1.96403 0.257858 8.84224e-19)
(-1.77609 0.240974 -6.57795e-19)
(-1.80369 0.241709 7.52219e-23)
(-1.82509 0.244043 -7.52246e-23)
(-1.85096 0.246852 6.8863e-23)
(-1.87642 0.248834 -5.52816e-19)
(-1.89215 0.252112 -1.06181e-18)
(-1.90438 0.251855 5.07485e-19)
(-1.92086 0.253034 4.83146e-19)
(-1.9445 0.25533 4.6106e-19)
(-2.18984 0.269968 8.48493e-20)
(-2.19847 0.26975 0)
(-1.97647 0.25866 0)
(-1.98982 0.260031 5.36165e-24)
(-2.00385 0.260474 -7.69123e-19)
(-2.01665 0.260549 7.24105e-36)
(-2.03068 0.263352 -3.47642e-19)
(-2.04306 0.263177 6.59585e-19)
(-2.05478 0.264194 1.9612e-23)
(-2.06488 0.26468 3.50748e-23)
(-2.07643 0.265009 -3.50609e-23)
(-2.08781 0.26566 -5.25461e-19)
(-2.09825 0.265965 2.35099e-38)
(-2.10797 0.267201 -2.32079e-19)
(-2.11701 0.26791 -2.16581e-19)
(-2.12669 0.267011 -1.18706e-23)
(-2.13614 0.268608 3.38787e-23)
(-2.14167 0.267459 1.7309e-19)
(-2.14902 0.268502 -1.17549e-38)
(-2.15895 0.268487 -1.42259e-19)
(-2.16961 0.268783 1.28125e-19)
(-2.17484 0.269334 1.14356e-19)
(-2.18036 0.268309 0)
(-2.41004 0.259989 -2.48375e-23)
(-2.41419 0.259902 -4.11854e-19)
(-2.41811 0.259369 4.21005e-19)
(-2.42088 0.258567 2.59802e-23)
(-2.42425 0.258087 -4.39663e-19)
(-2.2073 0.270221 4.46247e-36)
(-2.2154 0.270234 4.41494e-20)
(-2.22326 0.270604 -3.14364e-20)
(-2.23052 0.270701 -1.86105e-20)
(-2.23793 0.270455 -6.60361e-21)
(-2.24352 0.270924 5.82877e-21)
(-2.2496 0.27014 0)
(-2.25354 0.271049 -4.42984e-24)
(-2.26106 0.269685 4.42697e-24)
(-2.26886 0.270653 -5.41905e-20)
(-2.27471 0.269543 -6.48406e-20)
(-2.27761 0.270303 2.93874e-39)
(-2.28022 0.268967 5.70663e-24)
(-2.28652 0.269452 1.99002e-19)
(-2.29424 0.269519 6.4455e-25)
(-2.30161 0.270169 -1.47351e-23)
(-2.3044 0.269256 7.6702e-24)
(-2.31042 0.269017 -1.79563e-23)
(-2.31576 0.268794 1.52185e-19)
(-2.31771 0.268413 -9.74532e-24)
(-2.32268 0.267751 2.75987e-23)
(-2.32675 0.268029 1.85978e-19)
(-2.33117 0.268484 1.97317e-19)
(-2.33851 0.267017 -5.16336e-36)
(-2.34464 0.267725 2.18969e-19)
(-2.34972 0.267131 -4.58516e-19)
(-2.3537 0.266506 -2.39673e-19)
(-2.35745 0.266971 2.50132e-19)
(-2.36167 0.266317 1.17549e-38)
(-2.36768 0.266186 1.68643e-23)
(-2.37307 0.266705 -1.68571e-23)
(-2.37847 0.265722 -2.90326e-19)
(-2.38163 0.265246 -2.99477e-19)
(-2.38468 0.26539 -1.96846e-23)
(-2.38655 0.26393 -1.1772e-24)
(-2.39142 0.264142 -3.27351e-19)
(-2.39483 0.263385 -3.36415e-19)
(-2.39757 0.263034 3.45405e-19)
(-2.40028 0.26278 -3.55419e-19)
(-2.40551 0.262918 1.0603e-35)
(-2.40659 0.261663 -4.96016e-35)
(-2.40789 0.261472 0)
(-2.40771 0.260063 7.17465e-43)
(-2.35194 0.175332 5.70179e-19)
(-2.35118 0.173332 -5.75003e-19)
(-2.357 0.173969 -1.06327e-22)
(-2.36492 0.172832 3.52696e-23)
(-2.37058 0.172471 -2.27975e-25)
(-2.37372 0.171426 5.9136e-19)
(-2.37798 0.170706 3.61883e-23)
(-2.38032 0.169199 1.17549e-38)
(-2.38489 0.168296 6.01739e-19)
(-2.38941 0.167291 7.3764e-23)
(-2.42741 0.258061 -4.48307e-19)
(-2.42742 0.256563 9.12998e-19)
(-2.42701 0.256164 -9.31101e-19)
(-2.42843 0.255737 -4.74601e-19)
(-2.42811 0.2545 -9.66721e-19)
(-2.43089 0.254571 -4.92741e-19)
(-2.43344 0.253392 -3.67342e-39)
(-2.43529 0.252811 -5.11106e-19)
(-2.43901 0.252648 -1.03874e-18)
(-2.43969 0.251775 6.47816e-23)
(-2.43883 0.250638 -6.4742e-23)
(-2.43937 0.249809 5.42644e-19)
(-2.43923 0.249276 0)
(-2.43936 0.24881 3.43872e-23)
(-2.43755 0.247343 -3.43752e-23)
(-2.43424 0.246119 3.54907e-23)
(-2.43696 0.24603 -3.55061e-23)
(-2.43871 0.244842 1.12255e-38)
(-2.43941 0.244225 4.70198e-38)
(-2.4383 0.243788 -1.22176e-18)
(-2.43757 0.242669 1.2358e-18)
(-2.4363 0.241432 1.25183e-18)
(-2.43348 0.240358 -6.34013e-19)
(-2.43244 0.239712 3.89309e-23)
(-2.43003 0.238247 -1.35529e-39)
(-2.43188 0.237687 2.02493e-23)
(-2.43037 0.236952 -6.12495e-23)
(-2.42757 0.235587 -1.35207e-18)
(-2.42452 0.234202 4.20306e-23)
(-2.4231 0.233729 1.38637e-18)
(-2.42024 0.232379 7.00915e-19)
(-2.41862 0.231448 -7.10028e-19)
(-2.41608 0.230536 -4.41304e-23)
(-2.41495 0.22902 6.65242e-23)
(-2.41454 0.228703 -2.23722e-23)
(-2.41021 0.227262 -3.01335e-41)
(-2.4057 0.225952 4.61907e-23)
(-2.40192 0.224578 7.6098e-19)
(-2.40177 0.223846 -5.07197e-25)
(-2.39871 0.222534 -4.89816e-25)
(-2.39644 0.221576 -7.85513e-19)
(-2.39377 0.220458 1.58605e-18)
(-2.39261 0.219365 -4.70198e-38)
(-2.39 0.218934 9.63035e-39)
(-2.3857 0.216758 2.35099e-38)
(-2.37944 0.215773 8.2227e-19)
(-2.37446 0.213997 8.31158e-19)
(-2.37222 0.213157 8.40519e-19)
(-2.37116 0.212275 0)
(-2.36838 0.210935 -8.57609e-19)
(-2.3657 0.210292 -8.65692e-19)
(-2.36428 0.208913 5.30633e-23)
(-2.36184 0.207715 -8.80777e-19)
(-2.35931 0.206635 -8.88616e-19)
(-2.35329 0.205239 8.96055e-19)
(-2.34908 0.203572 -9.04825e-19)
(-2.35012 0.203127 9.14832e-19)
(-2.3501 0.20236 -9.23114e-19)
(-2.3486 0.201334 9.30454e-19)
(-2.34425 0.200111 -5.51636e-23)
(-2.34095 0.19874 8.83558e-23)
(-2.34157 0.1974 -1.90884e-18)
(-2.34188 0.196549 5.66118e-35)
(-2.34067 0.195537 -5.95294e-23)
(-2.33929 0.194343 5.95338e-23)
(-2.34049 0.193539 -9.86392e-19)
(-2.34151 0.192882 -9.9377e-19)
(-2.3417 0.191985 1.00076e-18)
(-2.33964 0.190765 -2.01676e-18)
(-2.33617 0.189543 -1.0165e-18)
(-2.33761 0.188113 6.23459e-23)
(-2.34233 0.187996 -1.03433e-18)
(-2.34347 0.186949 1.03999e-18)
(-2.34268 0.186352 -2.0939e-18)
(-2.34054 0.184875 3.17879e-23)
(-2.33793 0.18355 9.79789e-25)
(-2.33762 0.183025 2.71118e-24)
(-2.33645 0.181381 2.35099e-38)
(-2.33716 0.180894 1.09107e-18)
(-2.33943 0.17936 -1.10105e-18)
(-2.34485 0.178705 -6.8162e-23)
(-2.35072 0.178228 -5.60541e-19)
(-2.35355 0.177362 5.63749e-19)
(-2.35486 0.176099 -5.66996e-19)
(-4.30242 -0.638943 -4.56807e-18)
(-4.33132 -0.659535 2.78475e-22)
(-4.35986 -0.680954 -2.28189e-18)
(-4.3859 -0.702295 -4.55513e-18)
(-4.41182 -0.724673 1.92593e-34)
(-4.43875 -0.747574 0)
(-4.46654 -0.771529 -3.76158e-37)
(-4.49687 -0.796714 9.0531e-18)
(-4.53229 -0.824058 4.51606e-18)
(-4.5635 -0.851626 -4.50279e-18)
(-4.59895 -0.880934 4.48643e-18)
(-4.63111 -0.910675 -4.47193e-18)
(-4.67049 -0.943005 4.45502e-18)
(-4.70844 -0.976759 4.43294e-18)
(-4.74948 -1.01232 2.69986e-22)
(-4.78773 -1.04951 2.67062e-22)
(-4.82732 -1.08749 -5.32232e-22)
(-4.87025 -1.12896 1.76079e-24)
(-4.91128 -1.1715 1.97175e-24)
(-4.95095 -1.2158 4.26514e-18)
(-2.39393 0.166852 -6.10073e-19)
(-2.39704 0.165731 6.13688e-19)
(-2.39901 0.164891 -3.85336e-23)
(-2.40172 0.163733 7.58751e-23)
(-2.40721 0.163323 -1.14683e-22)
(-2.41263 0.162219 3.80449e-23)
(-2.41648 0.161252 -3.89641e-23)
(-2.42218 0.15996 -6.36473e-19)
(-2.4269 0.159229 -2.39111e-25)
(-2.43064 0.157911 7.87426e-23)
(-2.43609 0.157276 -3.95262e-23)
(-2.44234 0.156609 -3.99745e-23)
(-2.44819 0.155405 -2.41758e-25)
(-2.45448 0.154248 -6.61014e-19)
(-2.45797 0.153819 4.04552e-23)
(-2.46109 0.152254 1.43493e-42)
(-2.4691 0.150961 -4.12628e-23)
(-2.47745 0.150338 6.78605e-19)
(-2.48611 0.149029 6.83669e-19)
(-2.49301 0.148627 -6.88053e-19)
(-2.49989 0.14734 6.92464e-19)
(-2.50838 0.146676 -8.52511e-23)
(-2.51376 0.145373 8.52015e-23)
(-2.51915 0.144061 -7.03687e-19)
(-2.52724 0.142945 -7.07941e-19)
(-2.53369 0.141826 8.66501e-23)
(-2.54113 0.140904 -4.38102e-23)
(-2.54821 0.139591 7.19686e-19)
(-2.55638 0.138301 -7.23682e-19)
(-2.56395 0.137761 0)
(-2.57504 0.136023 -4.19866e-23)
(-2.5915 0.136011 4.48204e-23)
(-2.59644 0.134189 -7.38983e-19)
(-2.60233 0.133276 -7.43234e-19)
(-2.61168 0.131626 7.46295e-19)
(-2.62007 0.13018 -7.5099e-19)
(-2.6317 0.129371 -7.55056e-19)
(-2.63964 0.127543 4.61622e-23)
(-2.65125 0.126842 3.93529e-39)
(-2.66028 0.125121 1.15586e-34)
(-2.66916 0.123918 7.68755e-19)
(-2.67769 0.122515 -2.37e-25)
(-2.68626 0.121068 4.72725e-23)
(-2.69654 0.119825 7.81294e-19)
(-2.70745 0.117964 -7.85796e-19)
(-2.72104 0.117124 1.15398e-34)
(-2.73358 0.115036 -1.58737e-18)
(-2.74602 0.113896 -4.88071e-23)
(-2.75774 0.112366 9.78529e-23)
(-2.77306 0.111134 -9.83517e-23)
(-2.78692 0.109574 4.92662e-23)
(-2.79999 0.108092 -4.96886e-23)
(-2.81538 0.106695 -2.21847e-25)
(-2.83078 0.104552 -4.09833e-19)
(-2.84723 0.103361 4.11812e-19)
(-2.3144 -0.272108 -1.4593e-23)
(-2.30835 -0.272215 -2.14741e-19)
(-2.30404 -0.271898 6.20444e-24)
(-2.88783 0.0979414 4.1502e-19)
(-2.90318 0.0965339 -4.16547e-19)
(-2.91997 0.0943404 -3.29021e-35)
(-2.93798 0.0927259 -8.40448e-19)
(-2.95692 0.0908929 4.59177e-39)
(-2.97832 0.0890777 -8.47384e-19)
(-3.00159 0.0872524 4.25421e-19)
(-3.02405 0.0852674 2.93874e-39)
(-3.04621 0.0832468 0)
(-3.06966 0.0813425 -4.29656e-19)
(-3.09242 0.0795153 -1.40648e-35)
(-3.11605 0.07738 -5.28539e-23)
(-3.13943 0.0751186 5.28527e-23)
(-3.16227 0.0728746 1.17549e-38)
(-3.18507 0.0703979 4.35773e-19)
(-3.20793 0.0680643 -1.62395e-35)
(-3.23246 0.0654265 -4.38208e-19)
(-3.25754 0.0628205 -5.36643e-23)
(-3.2784 0.0599941 -2.1986e-19)
(-3.29859 0.0575085 -3.16208e-36)
(-3.3184 0.0548685 -4.41976e-19)
(-3.33479 0.0521043 0)
(-3.35144 0.0490218 2.22073e-19)
(-3.36774 0.0458911 5.42846e-23)
(-3.38235 0.0428113 2.23267e-19)
(-3.39594 0.0394373 0)
(-3.41652 0.0361027 0)
(-3.43032 0.0325867 3.67342e-40)
(-3.44034 0.0292971 1.13054e-19)
(-3.45057 0.0257175 1.13369e-19)
(-3.46027 0.0223445 0)
(-3.46881 0.0184244 1.14189e-19)
(-3.47858 0.0146421 5.73112e-20)
(-3.48604 0.0110721 1.83671e-40)
(-3.49398 0.00717947 -5.77618e-20)
(-3.49875 0.00333953 0)
(-3.50605 -0.000514695 3.64007e-21)
(-3.51027 -0.00471065 1.43493e-42)
(-3.51784 -0.00846542 1.83671e-40)
(-3.52168 -0.0128277 -1.17974e-19)
(-3.52806 -0.0167767 -2.70694e-36)
(-3.53109 -0.0209425 -3.39277e-36)
(-3.53435 -0.0251804 -1.19395e-19)
(-3.53918 -0.0296182 -1.20001e-19)
(-3.54435 -0.0342679 -4.81803e-19)
(-3.54637 -0.0386467 1.6791e-25)
(-3.54869 -0.0428381 5.93895e-23)
(-3.55233 -0.047447 -5.93858e-23)
(-3.55653 -0.0522436 -2.38557e-40)
(-3.56057 -0.0569216 3.0697e-39)
(-3.56464 -0.0616575 8.81621e-39)
(-3.56728 -0.0664204 4.95485e-19)
(-3.57095 -0.0713043 -6.05991e-23)
(-3.57258 -0.0764061 0)
(-3.57554 -0.0813234 -5.87747e-39)
(-3.57822 -0.0862429 -1.0065e-18)
(-3.58339 -0.0914383 5.05025e-19)
(-3.58831 -0.0970325 -1.01472e-18)
(-3.59416 -0.10227 0)
(-3.60068 -0.107501 1.02225e-18)
(-3.60574 -0.113244 0)
(-3.61008 -0.119089 -1.0303e-18)
(-3.61564 -0.124383 2.42806e-25)
(-3.6211 -0.13018 -6.32536e-23)
(-3.62755 -0.136064 -5.20887e-19)
(-3.63409 -0.141939 5.87747e-39)
(-3.64188 -0.147947 3.98022e-35)
(-3.64752 -0.154239 -2.10404e-18)
(-3.6523 -0.160838 -1.05623e-18)
(-3.65915 -0.166904 -6.46294e-23)
(-3.6643 -0.173543 1.06282e-18)
(-3.6698 -0.179941 1.06678e-18)
(-3.67761 -0.186972 -1.0705e-18)
(-3.68407 -0.193592 -6.54759e-23)
(-3.69069 -0.200575 -2.15341e-18)
(-3.69985 -0.207738 -2.15946e-18)
(-3.70776 -0.21537 -4.70198e-38)
(-3.71623 -0.222394 1.08565e-18)
(-3.72652 -0.230459 -1.32609e-22)
(-3.73567 -0.23826 -4.99667e-36)
(-3.74489 -0.246129 1.33883e-22)
(-3.75561 -0.254418 -1.09904e-18)
(-3.76566 -0.262471 -6.71486e-23)
(-3.77693 -0.271432 2.2089e-18)
(-3.79061 -0.280072 -2.21548e-18)
(-3.80168 -0.289013 -1.35394e-22)
(-3.81458 -0.298321 2.223e-18)
(-3.82607 -0.307415 -2.22688e-18)
(-3.83955 -0.317247 -1.83671e-40)
(-3.85277 -0.327037 -2.23727e-18)
(-3.86687 -0.337134 2.98805e-25)
(-3.88287 -0.347859 4.49318e-18)
(-3.8956 -0.358434 1.37317e-22)
(-3.91332 -0.369557 6.89445e-23)
(-3.93003 -0.380814 2.26078e-18)
(-3.94617 -0.392571 -1.37964e-22)
(-3.96309 -0.40465 -2.26543e-18)
(-3.98083 -0.416539 2.2669e-18)
(-3.99806 -0.429673 1.38699e-22)
(-4.01884 -0.442483 -1.38763e-22)
(-4.03917 -0.456249 -2.27729e-18)
(-4.05855 -0.470402 4.55967e-18)
(-4.08003 -0.484789 1.39281e-22)
(-4.10424 -0.499767 2.28494e-18)
(-4.12478 -0.515174 -2.28316e-18)
(-4.14731 -0.530793 -2.28241e-18)
(-4.17367 -0.547615 3.14432e-24)
(-4.19858 -0.566125 -2.49367e-23)
(-4.22044 -0.582209 2.28543e-18)
(-4.24853 -0.60048 0)
(-4.27254 -0.61927 1.88079e-37)
(-2.4506 -0.252904 -6.60045e-23)
(-2.44784 -0.253593 5.2763e-19)
(-2.44448 -0.253792 -2.35099e-38)
(-2.44464 -0.254603 -1.17549e-38)
(-2.44463 -0.255972 5.01043e-19)
(-2.44283 -0.256046 9.8574e-19)
(-2.44225 -0.257137 4.84404e-19)
(-2.43964 -0.257426 9.5213e-19)
(-2.43801 -0.257632 -2.87589e-23)
(-2.43732 -0.259068 4.5845e-19)
(-2.43433 -0.25913 4.49703e-19)
(-2.4315 -0.259653 2.66032e-23)
(-2.42977 -0.260605 -4.31391e-19)
(-2.42635 -0.261166 2.54971e-23)
(-2.42186 -0.261291 -2.5496e-23)
(-2.41771 -0.261189 0)
(-2.4183 -0.262652 0)
(-2.41807 -0.262996 2.51335e-35)
(-2.41674 -0.264154 1.59162e-35)
(-2.41096 -0.263958 3.655e-19)
(-2.40673 -0.26397 1.74129e-23)
(-2.40382 -0.264307 3.43969e-19)
(-2.40418 -0.265578 3.34128e-19)
(-2.40189 -0.265658 -1.13961e-24)
(-2.39792 -0.266911 -2.01692e-23)
(-2.39032 -0.266205 3.05372e-19)
(-2.38767 -0.266804 5.87821e-19)
(-2.38707 -0.268315 -2.84152e-19)
(-2.38516 -0.268219 1.70619e-23)
(-2.3817 -0.268621 0)
(-2.37816 -0.269331 -5.10348e-19)
(-2.37531 -0.269 2.45167e-19)
(-2.37296 -0.2698 4.71362e-19)
(-2.36812 -0.270377 -2.26446e-19)
(-2.36144 -0.269643 8.23728e-36)
(-2.35438 -0.271105 -2.0568e-19)
(-2.35224 -0.270945 -5.87747e-39)
(-2.34911 -0.270837 1.55662e-23)
(-2.34389 -0.271414 -1.26397e-23)
(-2.34023 -0.271628 -1.63801e-19)
(-4.98798 -1.26207 -4.23019e-18)
(-5.02438 -1.31115 2.23794e-23)
(-5.06023 -1.36104 -4.14025e-18)
(-5.09024 -1.41427 4.09004e-18)
(-5.11864 -1.46911 -3.64873e-34)
(-5.14394 -1.52584 -4.13873e-38)
(-5.16116 -1.58514 -3.787e-35)
(-5.17188 -1.64375 0)
(-5.1809 -1.71054 0)
(-5.18035 -1.77447 -1.45533e-17)
(-5.16429 -1.83917 7.05932e-18)
(-5.13878 -1.90636 -4.70198e-38)
(-5.10293 -1.97554 6.54918e-18)
(-5.04997 -2.04303 1.2488e-17)
(-4.982 -2.11444 -4.16031e-34)
(-4.89192 -2.17839 5.49024e-18)
(-4.74675 -2.2278 5.03293e-18)
(-4.50914 -2.2417 4.12685e-23)
(-4.17706 -2.19988 -3.94313e-18)
(-3.89897 -2.18811 -3.25746e-18)
(-3.83522 -2.31871 2.41074e-18)
(-3.89613 -2.55267 -1.38575e-18)
(-3.98991 -2.83 -4.688e-23)
(-4.06262 -3.17817 -1.01563e-34)
(-4.10275 -3.5864 -3.04935e-18)
(-4.03084 -4.02624 -1.04476e-17)
(-3.8425 -4.43323 -7.79706e-18)
(-3.42133 -4.79093 -7.74341e-22)
(-2.70997 -4.8209 -2.86574e-22)
(-1.7633 -4.35623 1.81688e-17)
(-0.798648 -3.29383 -1.07774e-17)
(-0.0834283 -0.0575392 5.21953e-22)
(-0.0694314 0.0354983 -1.74449e-23)
(-0.729993 3.00252 2.20408e-17)
(-1.7115 4.22264 1.88893e-17)
(-2.7295 4.85484 3.00892e-17)
(-3.4795 4.87074 -8.01954e-22)
(-3.91147 4.51437 8.028e-18)
(-4.09193 4.08758 1.07683e-17)
(-4.16313 3.63748 3.16206e-18)
(-4.10685 3.22243 -1.35236e-18)
(-4.02121 2.85236 -4.36265e-23)
(-3.92239 2.56468 1.33452e-18)
(-3.85844 2.33286 -2.36773e-18)
(-3.89395 2.18536 3.22933e-18)
(-4.09902 2.1589 0)
(-4.39477 2.18508 4.51615e-18)
(-4.62561 2.17099 -5.03848e-18)
(-4.75253 2.11645 -1.99041e-22)
(-4.81087 2.04208 -2.70834e-35)
(-4.84298 1.95944 -1.25322e-17)
(-4.8596 1.88163 -3.9205e-22)
(-4.86299 1.80428 0)
(-4.86024 1.73105 -7.09526e-18)
(-4.85545 1.66328 1.46195e-17)
(-4.84546 1.59981 3.75461e-18)
(-4.82704 1.53487 -3.84303e-18)
(-4.81047 1.47721 2.36768e-22)
(-4.79703 1.42297 0)
(-4.78619 1.37386 4.04477e-18)
(-4.77377 1.3261 -4.10161e-18)
(-4.76632 1.28189 4.14764e-18)
(-4.7617 1.24254 -2.03514e-23)
(-4.75973 1.20423 4.23286e-18)
(-4.75302 1.16717 -4.26656e-18)
(-4.74454 1.13164 1.78283e-24)
(-4.73882 1.09842 1.65166e-24)
(-4.73154 1.06581 -5.31477e-22)
(-4.72117 1.03459 5.34329e-22)
(-4.70879 1.00385 1.28712e-24)
(-4.68963 0.972803 -2.88702e-22)
(-4.67202 0.943223 -2.33064e-34)
(-4.65311 0.914905 0)
(-4.63784 0.888322 -4.47086e-18)
(-4.61582 0.861397 4.48883e-18)
(-4.59367 0.83509 -4.50283e-18)
(-4.5682 0.809295 -9.02144e-18)
(-4.54549 0.785141 -1.88079e-37)
(-4.52408 0.7619 -4.52349e-18)
(-4.50075 0.739234 -4.52911e-18)
(-4.47742 0.71693 2.77209e-22)
(-4.45301 0.695418 4.54667e-18)
(-4.42854 0.674312 2.77402e-22)
(-4.40168 0.653668 1.14794e-41)
(-4.37595 0.634222 5.91259e-42)
(-4.35373 0.615344 9.40395e-38)
(-4.32449 0.596519 -2.27598e-18)
(-4.29986 0.579922 2.85213e-23)
(-4.27223 0.560535 -3.42518e-24)
(-4.24466 0.543209 2.27273e-18)
(-4.22108 0.527095 -2.69996e-38)
(-4.1964 0.511177 2.27306e-18)
(-4.17111 0.495426 4.54583e-18)
(-4.14321 0.480197 -4.54358e-18)
(-4.11722 0.465254 2.76657e-22)
(-4.09204 0.45033 -4.53225e-18)
(-4.06635 0.437074 1.38266e-22)
(-4.04489 0.423282 -2.26038e-18)
(-4.022 0.410681 2.25955e-18)
(-3.99873 0.397784 -1.37626e-22)
(-3.97527 0.385199 1.37669e-22)
(-3.95189 0.373118 -8.76652e-42)
(-3.92978 0.361608 1.37067e-22)
(-3.90979 0.350261 -4.48609e-18)
(-3.8877 0.338943 3.09943e-25)
(-3.8682 0.328341 2.23346e-18)
(-3.84977 0.318041 -2.16291e-35)
(-3.83086 0.307748 -1.39824e-22)
(-3.8131 0.298173 -2.21854e-18)
(-3.79344 0.28831 -1.35132e-22)
(-3.77576 0.279288 2.20926e-18)
(-3.75673 0.269708 -1.10144e-18)
(-3.73918 0.260744 -6.70389e-23)
(-3.72261 0.252219 1.09734e-18)
(-3.70585 0.243635 1.33697e-22)
(-3.69236 0.235564 -6.98333e-35)
(-3.67908 0.227541 -1.32405e-22)
(-3.66481 0.219307 -1.08356e-18)
(-3.65254 0.21218 -4.70198e-38)
(-3.63837 0.204305 2.15598e-18)
(-3.62199 0.196875 1.07487e-18)
(-3.60905 0.189685 -6.53618e-23)
(-3.59643 0.182888 1.06884e-18)
(-3.58277 0.175709 0)
(-3.57051 0.169139 -8.86503e-35)
(-3.5605 0.16243 -6.45169e-23)
(-3.54978 0.156362 1.05482e-18)
(-3.53943 0.149718 1.0504e-18)
(-3.53027 0.143414 0)
(-3.51945 0.137464 0)
(-3.51053 0.131654 5.20142e-19)
(-3.50189 0.125885 -6.31899e-23)
(-3.49384 0.12015 2.21596e-25)
(-3.48415 0.11489 1.02986e-18)
(-3.47621 0.109148 0)
(-3.46705 0.103498 -5.11046e-19)
(-3.45803 0.0984039 -5.09267e-19)
(-3.45115 0.0933513 1.01458e-18)
(-3.44514 0.0879816 -5.05188e-19)
(-3.43791 0.0829299 5.03599e-19)
(-3.43188 0.0781462 5.87747e-39)
(-3.42386 0.0733276 7.17465e-43)
(-3.41752 0.0683784 -6.07213e-23)
(-3.41038 0.0636384 -4.96481e-19)
(-3.4039 0.0589679 -8.81621e-39)
(-3.3975 0.0544072 2.46558e-19)
(-3.39289 0.0497774 -1.46937e-39)
(-3.38814 0.0452068 -5.96592e-23)
(-3.38453 0.0407018 5.96623e-23)
(-3.38055 0.0366098 4.85982e-19)
(-3.37624 0.0324643 2.42291e-19)
(-3.36984 0.028147 1.20543e-19)
(-3.36288 0.0239183 5.87769e-23)
(-3.35739 0.019866 1.19601e-19)
(-3.35349 0.01597 1.85673e-36)
(-3.34963 0.0121827 5.92996e-20)
(-3.34686 0.00813984 4.59177e-41)
(-3.3425 0.00454166 -1.43493e-42)
(-3.34095 0.000674379 -3.66047e-21)
(-3.33858 -0.00305035 0)
(-3.33506 -0.00684811 5.81605e-20)
(-3.33147 -0.010748 -4.22443e-39)
(-3.32845 -0.0141813 -5.77112e-20)
(-3.32254 -0.0178432 -1.15005e-19)
(-3.31788 -0.0215102 -1.43493e-42)
(-3.31386 -0.0247405 -1.14145e-19)
(-3.31229 -0.0282155 -1.13751e-19)
(-3.30914 -0.0314855 -1.1341e-19)
(-3.30494 -0.0349631 0)
(-3.29822 -0.0383274 7.34684e-40)
(-3.29144 -0.0415944 -2.24801e-19)
(-3.28239 -0.0446455 5.45864e-23)
(-3.2727 -0.0477779 -2.23269e-19)
(-3.26505 -0.0509853 5.87747e-39)
(-3.25692 -0.0538346 4.42961e-19)
(-3.25111 -0.0567599 7.37623e-36)
(-3.24481 -0.0594189 5.35501e-23)
(-3.23928 -0.0625943 -5.35679e-23)
(-3.23133 -0.0654371 4.36497e-19)
(-3.22366 -0.068521 4.34755e-19)
(-3.21582 -0.0710559 -4.93237e-35)
(-3.20797 -0.0739833 -4.31325e-19)
(-3.20053 -0.0764733 5.23338e-23)
(-3.19257 -0.0792183 -5.23316e-23)
(-3.18418 -0.0817381 0)
(-3.17516 -0.0839899 1.26773e-35)
(-3.16612 -0.0863971 5.87747e-39)
(-3.15687 -0.0889028 -4.21104e-19)
(-3.14789 -0.0914176 6.80023e-36)
(-3.13795 -0.0937907 4.1797e-19)
(-3.1276 -0.0960839 4.16434e-19)
(-3.1169 -0.0982518 4.14973e-19)
(-3.10569 -0.100255 6.15298e-39)
(-3.09344 -0.102672 4.12075e-19)
(-3.07972 -0.104343 -4.10678e-19)
(-3.06831 -0.10623 -8.18296e-19)
(-3.05594 -0.108412 4.07884e-19)
(-3.04342 -0.11056 -4.0665e-19)
(-3.02891 -0.111953 4.05006e-19)
(-3.0147 -0.114211 -8.05849e-19)
(-2.99973 -0.115818 -4.91163e-23)
(-2.9858 -0.117391 4.86804e-23)
(-2.97348 -0.119237 -7.959e-19)
(-2.9592 -0.120614 7.92157e-19)
(-2.9477 -0.122266 -4.82341e-23)
(-2.93444 -0.123533 1.56976e-18)
(-2.92208 -0.125707 -7.01182e-35)
(-2.90785 -0.126708 7.78353e-19)
(-2.89395 -0.128541 -7.74613e-19)
(-2.88151 -0.129833 4.69099e-23)
(-2.86956 -0.131305 -2.29288e-25)
(-2.85591 -0.132579 -7.62882e-19)
(-2.84347 -0.133822 -7.35037e-35)
(-2.83209 -0.135528 -2.83404e-36)
(-2.82065 -0.136372 4.57151e-23)
(-2.81277 -0.138299 7.47728e-19)
(-2.80106 -0.139255 7.44068e-19)
(-2.79003 -0.140647 -2.20782e-25)
(-2.78092 -0.142378 7.36486e-19)
(-2.76733 -0.14296 7.33477e-19)
(-2.75548 -0.144661 4.43663e-23)
(-2.74529 -0.145085 -4.6855e-23)
(-2.73828 -0.147166 7.20993e-19)
(-2.72917 -0.147758 7.16927e-19)
(-2.72006 -0.14914 -7.12829e-19)
(-2.71098 -0.150422 -4.33952e-23)
(-2.70252 -0.151454 8.58041e-23)
(-2.69597 -0.152701 -4.87672e-25)
(-2.68844 -0.153919 6.96681e-19)
(-2.68106 -0.155168 8.4402e-23)
(-2.67339 -0.156342 -8.4452e-23)
(-2.66418 -0.157042 -6.86141e-19)
(-2.65678 -0.158366 8.12729e-25)
(-2.65115 -0.159019 1.17549e-38)
(-2.64287 -0.160396 -6.73757e-19)
(-2.6378 -0.161432 -4.0979e-23)
(-2.62807 -0.16267 6.65229e-19)
(-2.62264 -0.164317 4.02496e-23)
(-2.61619 -0.164588 6.57996e-19)
(-2.60476 -0.165609 -2.7465e-25)
(-2.59717 -0.166764 -3.97526e-23)
(-2.59249 -0.16751 -3.92392e-23)
(-2.58884 -0.168156 7.81821e-23)
(-2.58823 -0.169646 6.36289e-19)
(-2.5847 -0.170551 6.33074e-19)
(-2.57781 -0.171856 -3.87524e-23)
(-2.57418 -0.172963 3.78525e-23)
(-2.56963 -0.174212 -1.14105e-22)
(-2.56448 -0.174787 7.55065e-23)
(-2.56096 -0.175992 -6.14212e-19)
(-2.55791 -0.176868 -6.10679e-19)
(-2.55399 -0.177971 6.06992e-19)
(-2.54996 -0.178532 7.33854e-23)
(-2.54799 -0.179806 -7.33048e-23)
(-2.5448 -0.180911 2.86986e-42)
(-2.54194 -0.182429 3.60061e-23)
(-2.53757 -0.183189 -2.26161e-25)
(-2.53464 -0.184327 -5.84789e-19)
(-2.53141 -0.185021 3.51347e-23)
(-2.52912 -0.186556 -1.05911e-22)
(-2.52425 -0.186398 5.74406e-19)
(-2.51961 -0.187971 -4.55195e-25)
(-2.51644 -0.188363 1.13334e-18)
(-2.51337 -0.189645 -5.63205e-19)
(-2.51069 -0.190553 5.60103e-19)
(-2.50585 -0.191104 -6.81441e-23)
(-2.50287 -0.192022 -1.64569e-37)
(-2.49587 -0.193013 -1.09746e-18)
(-2.48889 -0.19316 4.70198e-38)
(-2.48819 -0.194568 1.07907e-18)
(-2.48926 -0.195338 -1.16247e-24)
(-2.48559 -0.196444 3.37768e-23)
(-2.48047 -0.197507 2.10946e-18)
(-2.47796 -0.198077 -1.04489e-18)
(-2.47679 -0.198986 1.03626e-18)
(-2.47661 -0.199398 6.24183e-23)
(-2.47857 -0.201147 2.0366e-18)
(-2.47834 -0.202069 -4.56372e-25)
(-2.47333 -0.202763 -3.01541e-23)
(-2.46776 -0.203303 9.95397e-19)
(-2.46614 -0.203915 9.8605e-19)
(-2.46674 -0.204972 5.94724e-23)
(-2.46805 -0.206318 -5.94681e-23)
(-2.46869 -0.207281 -7.02005e-35)
(-2.47041 -0.208432 1.90973e-18)
(-2.46984 -0.209665 8.54044e-23)
(-2.46861 -0.210664 -5.93598e-23)
(-2.46634 -0.211374 -9.35893e-19)
(-2.46351 -0.212027 9.28178e-19)
(-2.46397 -0.212878 -9.20223e-19)
(-2.46179 -0.213279 9.11872e-19)
(-2.45992 -0.214312 5.60659e-23)
(-2.45813 -0.215087 8.95996e-19)
(-2.45552 -0.215791 8.8654e-19)
(-2.45548 -0.216936 5.32787e-23)
(-2.4563 -0.218289 8.68465e-19)
(-2.46008 -0.219181 8.60439e-19)
(-2.46179 -0.220437 0)
(-2.46232 -0.221379 -8.44162e-19)
(-2.46196 -0.221947 -8.3589e-19)
(-2.46281 -0.223335 -8.28098e-19)
(-2.46322 -0.223745 -2.35099e-38)
(-2.46289 -0.225601 2.17142e-38)
(-2.4609 -0.225577 4.70198e-38)
(-2.45979 -0.226571 -1.59252e-18)
(-2.46055 -0.227611 7.88345e-19)
(-2.46066 -0.228362 -7.79875e-19)
(-2.46093 -0.229481 -5.08293e-25)
(-2.45724 -0.229815 -7.63597e-19)
(-2.45743 -0.230928 4.6337e-23)
(-2.45942 -0.231906 1.29144e-41)
(-2.46218 -0.233072 -2.24861e-23)
(-2.45979 -0.233158 6.6936e-23)
(-2.45928 -0.234523 -4.44242e-23)
(-2.46095 -0.235484 7.16263e-19)
(-2.46037 -0.236277 -7.08312e-19)
(-2.45998 -0.237401 -1.4017e-18)
(-2.45896 -0.23765 4.25037e-23)
(-2.46024 -0.238786 1.36928e-18)
(-2.45956 -0.239797 -6.2074e-23)
(-2.46019 -0.240447 2.05287e-23)
(-2.45984 -0.241206 -1.45071e-39)
(-2.46095 -0.242522 3.95859e-23)
(-2.45915 -0.242901 6.4462e-19)
(-2.4605 -0.243813 -1.2732e-18)
(-2.45963 -0.244817 -1.25718e-18)
(-2.45906 -0.245317 1.24119e-18)
(-2.45988 -0.246397 0)
(-2.45871 -0.246757 2.94878e-39)
(-2.45719 -0.247996 -3.6219e-23)
(-2.4525 -0.247958 3.62035e-23)
(-2.45191 -0.248768 -3.50563e-23)
(-2.45273 -0.250201 3.50684e-23)
(-2.45384 -0.250768 0)
(-2.45494 -0.251386 -5.52863e-19)
(-2.45318 -0.252073 6.59637e-23)
(-2.33483 -0.271844 -1.53185e-19)
(-2.32964 -0.272288 8.35521e-24)
(-2.32319 -0.272797 -7.05422e-25)
(-2.30144 -0.273224 2.93874e-39)
(-2.29601 -0.272097 7.40033e-20)
(-2.28909 -0.273156 6.20951e-20)
(-2.28394 -0.272465 5.42052e-24)
(-2.27698 -0.273904 -5.42422e-24)
(-2.27063 -0.2727 0)
(-2.26593 -0.273678 -1.36487e-20)
(-2.2614 -0.273337 -1.91449e-21)
(-2.25584 -0.273823 1.0015e-20)
(-2.25062 -0.273933 2.19806e-20)
(-2.24302 -0.273605 -3.42332e-20)
(-2.23569 -0.273643 -4.71566e-20)
(-2.22863 -0.273444 0)
(-2.22292 -0.273937 -7.28443e-20)
(-2.21277 -0.272299 2.93874e-39)
(-2.20325 -0.272831 -1.12104e-44)
(-2.19726 -0.272238 -3.88909e-24)
(-2.18941 -0.272329 1.28216e-19)
(-2.18362 -0.27282 -3.35016e-36)
(-2.17711 -0.271925 -1.55993e-19)
(-2.16746 -0.272542 3.0714e-23)
(-2.15529 -0.270589 -1.08231e-23)
(-2.14541 -0.271499 2.00293e-19)
(-2.13668 -0.270845 2.15995e-19)
(-2.12788 -0.269725 0)
(-2.11875 -0.269614 4.94104e-19)
(-2.10685 -0.268878 -3.3177e-23)
(-2.09395 -0.268422 3.31902e-23)
(-2.081 -0.267567 1.87745e-23)
(-2.06915 -0.266549 -3.16893e-19)
(-2.05917 -0.266991 3.34827e-19)
(-2.04612 -0.264353 -6.20661e-36)
(-2.03112 -0.263956 7.42748e-19)
(-2.0154 -0.263336 -5.39607e-24)
(-2.00033 -0.261774 4.70198e-38)
(-1.98736 -0.260956 -8.64907e-19)
(-1.97375 -0.259256 -4.52495e-19)
(-1.95372 -0.257345 -4.73279e-19)
(-1.93425 -0.255762 -5.92306e-23)
(-1.91597 -0.255301 1.04251e-18)
(-1.90023 -0.252028 -6.80223e-23)
(-1.88359 -0.251255 6.79597e-23)
(-1.86634 -0.249685 -7.39283e-23)
(-1.84201 -0.246886 -6.18133e-19)
(-1.81282 -0.246025 6.47252e-19)
(-1.78433 -0.239705 -4.04303e-23)
(-1.75586 -0.237468 7.07656e-19)
(-1.72492 -0.234137 -7.40487e-19)
(-1.69305 -0.230457 4.2853e-24)
(-1.66509 -0.22708 -1.97945e-22)
(-1.63786 -0.224099 2.06557e-22)
(-1.60291 -0.220015 -2.15464e-22)
(-1.56121 -0.214707 1.10021e-22)
(-1.5195 -0.209856 0)
(-1.47323 -0.203986 -1.00541e-18)
(-1.46119 -0.203011 2.56186e-22)
(-1.50314 -0.210138 -2.47551e-22)
(-1.73259 -0.180999 3.34761e-25)
)
;
    }
}


// ************************************************************************* //
