# Wall shear stress
# Time        	patch         	min           	max           
2.500000e+02	aerofoil	(-4.759108e+00 -6.708502e+00 -3.888455e-17)	(9.944155e-01 7.395363e-01 4.611425e-17)
